LAMMPS data file for aC with a PSD centered at 1.5 nm
 4800 atoms
 7120 bonds
 14116 angles
 28060 dihedrals
 0 impropers
 1 atom types
 1 bond types
 1 angle types
 1 dihedral types
 0 improper types
 0.029351 28.829350  xlo xhi
 -0.030048 57.569950  ylo yhi
 -0.009099 57.590899  zlo zhi

 Masses

 1 12.010000 # 1

 Atoms

1 1 1 0.000000 4.365800 15.659300 23.964500 # 1 
2 1 1 0.000000 5.440500 0.408800 4.201400 # 1 
3 1 1 0.000000 8.598200 27.741400 22.811001 # 1 
4 1 1 0.000000 24.117599 16.669701 0.304600 # 1 
5 1 1 0.000000 19.312599 10.928200 17.944000 # 1 
6 1 1 0.000000 20.069300 22.972799 25.005100 # 1 
7 1 1 0.000000 9.294300 27.724001 7.185800 # 1 
8 1 1 0.000000 15.981700 10.504500 6.380100 # 1 
9 1 1 0.000000 11.801600 28.253099 11.479800 # 1 
10 1 1 0.000000 18.913601 22.446100 24.537399 # 1 
11 1 1 0.000000 4.971600 12.563400 1.662700 # 1 
12 1 1 0.000000 10.026700 27.571800 9.559800 # 1 
13 1 1 0.000000 6.490900 14.904200 23.128500 # 1 
14 1 1 0.000000 15.093500 21.982500 15.007800 # 1 
15 1 1 0.000000 8.033500 4.191500 20.456400 # 1 
16 1 1 0.000000 5.566200 1.151300 14.914300 # 1 
17 1 1 0.000000 14.629000 2.064300 18.191999 # 1 
18 1 1 0.000000 17.269501 18.866400 13.360700 # 1 
19 1 1 0.000000 12.696000 5.838400 0.858400 # 1 
20 1 1 0.000000 13.276200 21.225901 25.715200 # 1 
21 1 1 0.000000 0.553300 4.802500 0.968800 # 1 
22 1 1 0.000000 16.176800 2.386000 16.283300 # 1 
23 1 1 0.000000 25.164200 10.274800 26.287399 # 1 
24 1 1 0.000000 12.866000 19.606501 5.615000 # 1 
25 1 1 0.000000 8.812400 10.168900 2.569400 # 1 
26 1 1 0.000000 20.218800 14.451700 27.890900 # 1 
27 1 1 0.000000 11.891800 18.648300 25.943899 # 1 
28 1 1 0.000000 9.817300 5.200000 11.162600 # 1 
29 1 1 0.000000 23.649401 14.075300 24.704700 # 1 
30 1 1 0.000000 21.437099 10.673700 3.878200 # 1 
31 1 1 0.000000 25.456600 19.177000 28.252800 # 1 
32 1 1 0.000000 22.481501 5.562000 21.527599 # 1 
33 1 1 0.000000 18.876600 24.543900 21.321501 # 1 
34 1 1 0.000000 19.950001 16.515900 16.870199 # 1 
35 1 1 0.000000 7.679900 24.084000 14.678100 # 1 
36 1 1 0.000000 22.613199 14.309700 23.714199 # 1 
37 1 1 0.000000 28.662399 14.770100 21.665300 # 1 
38 1 1 0.000000 11.040200 21.312901 20.784401 # 1 
39 1 1 0.000000 13.104900 28.560801 11.991000 # 1 
40 1 1 0.000000 1.833300 18.777399 14.446700 # 1 
41 1 1 0.000000 1.389700 23.344000 24.310900 # 1 
42 1 1 0.000000 16.438801 10.031800 7.618200 # 1 
43 1 1 0.000000 16.966200 17.704100 11.425900 # 1 
44 1 1 0.000000 1.611500 6.724500 0.152200 # 1 
45 1 1 0.000000 17.067600 20.978300 24.971800 # 1 
46 1 1 0.000000 12.727400 23.968901 18.136000 # 1 
47 1 1 0.000000 25.735399 6.697900 24.285801 # 1 
48 1 1 0.000000 24.471701 13.116100 0.922600 # 1 
49 1 1 0.000000 5.607800 2.952000 4.451200 # 1 
50 1 1 0.000000 16.050800 7.934800 23.265301 # 1 
51 1 1 0.000000 1.427300 25.027100 0.316300 # 1 
52 1 1 0.000000 12.578400 20.841299 7.790300 # 1 
53 1 1 0.000000 18.790800 14.608900 1.207100 # 1 
54 1 1 0.000000 9.549000 25.682899 23.792500 # 1 
55 1 1 0.000000 4.669500 5.520200 3.821300 # 1 
56 1 1 0.000000 7.496200 3.898800 5.661900 # 1 
57 1 1 0.000000 16.501101 21.460899 23.781401 # 1 
58 1 1 0.000000 19.949699 10.607300 27.195700 # 1 
59 1 1 0.000000 10.180400 23.926901 10.554700 # 1 
60 1 1 0.000000 14.616900 9.381500 1.816800 # 1 
61 1 1 0.000000 4.685600 18.592800 25.261200 # 1 
62 1 1 0.000000 25.531500 11.405800 28.297899 # 1 
63 1 1 0.000000 13.672800 19.509399 20.262899 # 1 
64 1 1 0.000000 24.050100 18.918800 28.118401 # 1 
65 1 1 0.000000 9.716300 1.351300 8.899800 # 1 
66 1 1 0.000000 13.611800 14.394500 0.363200 # 1 
67 1 1 0.000000 1.944200 20.149599 16.460300 # 1 
68 1 1 0.000000 15.944300 8.247100 26.182699 # 1 
69 1 1 0.000000 11.550200 13.059700 0.961600 # 1 
70 1 1 0.000000 16.510900 24.917900 22.054501 # 1 
71 1 1 0.000000 6.198600 22.272699 14.390200 # 1 
72 1 1 0.000000 11.590600 22.566999 9.235900 # 1 
73 1 1 0.000000 23.626900 8.772400 9.766900 # 1 
74 1 1 0.000000 13.755800 25.663401 16.018700 # 1 
75 1 1 0.000000 22.711599 5.478600 16.357800 # 1 
76 1 1 0.000000 12.567100 7.346900 5.909900 # 1 
77 1 1 0.000000 12.846100 9.243400 16.941401 # 1 
78 1 1 0.000000 23.389099 1.478800 26.117701 # 1 
79 1 1 0.000000 25.987101 9.205300 26.813200 # 1 
80 1 1 0.000000 11.843800 24.501101 17.196600 # 1 
81 1 1 0.000000 26.978500 15.491500 15.361200 # 1 
82 1 1 0.000000 9.514200 12.237700 1.402800 # 1 
83 1 1 0.000000 8.903700 12.207200 20.986099 # 1 
84 1 1 0.000000 7.930100 17.859200 26.412800 # 1 
85 1 1 0.000000 16.041599 21.176901 14.314500 # 1 
86 1 1 0.000000 8.464000 4.217700 16.650000 # 1 
87 1 1 0.000000 15.149700 1.348200 12.118000 # 1 
88 1 1 0.000000 23.960699 15.151100 18.455601 # 1 
89 1 1 0.000000 15.305500 15.471000 27.756201 # 1 
90 1 1 0.000000 2.532200 7.759200 0.145900 # 1 
91 1 1 0.000000 24.865299 6.005200 23.481600 # 1 
92 1 1 0.000000 11.977600 1.621200 10.384600 # 1 
93 1 1 0.000000 10.697300 23.487000 23.637100 # 1 
94 1 1 0.000000 10.353000 17.719500 16.479401 # 1 
95 1 1 0.000000 16.731300 16.800400 5.140600 # 1 
96 1 1 0.000000 17.233200 13.320000 9.279100 # 1 
97 1 1 0.000000 27.974400 4.096200 21.479601 # 1 
98 1 1 0.000000 27.145100 27.526800 0.312900 # 1 
99 1 1 0.000000 19.939199 16.049000 19.921301 # 1 
100 1 1 0.000000 17.496799 19.069401 14.673500 # 1 
101 1 1 0.000000 3.724400 9.257000 1.653800 # 1 
102 1 1 0.000000 4.894000 24.958500 21.947201 # 1 
103 1 1 0.000000 7.528800 19.837900 14.688500 # 1 
104 1 1 0.000000 12.031400 12.133100 17.479099 # 1 
105 1 1 0.000000 14.701800 10.414700 17.579800 # 1 
106 1 1 0.000000 11.903400 22.862200 23.014900 # 1 
107 1 1 0.000000 15.991100 11.901400 6.197900 # 1 
108 1 1 0.000000 6.721100 7.749400 22.030701 # 1 
109 1 1 0.000000 15.531300 15.994100 5.422400 # 1 
110 1 1 0.000000 1.812800 21.453300 17.072201 # 1 
111 1 1 0.000000 15.905500 26.756399 20.740400 # 1 
112 1 1 0.000000 10.908500 27.167200 11.813000 # 1 
113 1 1 0.000000 16.315701 28.449600 18.406601 # 1 
114 1 1 0.000000 3.017700 22.772100 18.428400 # 1 
115 1 1 0.000000 21.879101 7.671100 22.216600 # 1 
116 1 1 0.000000 9.903400 0.244300 9.893600 # 1 
117 1 1 0.000000 20.350901 15.244800 13.170000 # 1 
118 1 1 0.000000 18.068501 16.614500 25.625099 # 1 
119 1 1 0.000000 23.917801 6.822500 27.605801 # 1 
120 1 1 0.000000 2.375800 7.438800 26.595699 # 1 
121 1 1 0.000000 8.278200 24.223900 16.134899 # 1 
122 1 1 0.000000 21.096001 15.752900 19.028500 # 1 
123 1 1 0.000000 20.896299 10.469300 6.276400 # 1 
124 1 1 0.000000 20.508600 9.745900 16.223600 # 1 
125 1 1 0.000000 14.257100 0.949600 19.027800 # 1 
126 1 1 0.000000 22.530300 26.553200 25.734900 # 1 
127 1 1 0.000000 14.430600 6.043000 27.876400 # 1 
128 1 1 0.000000 15.876200 9.502200 28.454500 # 1 
129 1 1 0.000000 10.033500 2.717500 17.987499 # 1 
130 1 1 0.000000 28.785900 25.561199 21.532900 # 1 
131 1 1 0.000000 21.793301 8.407800 27.983101 # 1 
132 1 1 0.000000 13.114800 20.585199 19.440399 # 1 
133 1 1 0.000000 25.225100 20.825899 26.514000 # 1 
134 1 1 0.000000 1.245500 16.745399 19.017300 # 1 
135 1 1 0.000000 13.717600 25.944099 28.000900 # 1 
136 1 1 0.000000 24.917999 12.819300 26.230499 # 1 
137 1 1 0.000000 22.291201 10.596500 12.418300 # 1 
138 1 1 0.000000 3.987100 14.709000 24.926201 # 1 
139 1 1 0.000000 15.994300 25.287901 16.881901 # 1 
140 1 1 0.000000 3.866800 9.127700 27.183300 # 1 
141 1 1 0.000000 27.031500 14.175300 26.300200 # 1 
142 1 1 0.000000 3.410400 11.029400 28.589399 # 1 
143 1 1 0.000000 13.399300 12.632200 17.320999 # 1 
144 1 1 0.000000 14.062000 25.362801 21.594101 # 1 
145 1 1 0.000000 21.231100 19.662001 23.594101 # 1 
146 1 1 0.000000 8.149900 23.942101 23.457701 # 1 
147 1 1 0.000000 12.378800 24.094200 19.483601 # 1 
148 1 1 0.000000 4.191300 12.642900 26.331499 # 1 
149 1 1 0.000000 24.184500 15.572400 14.896900 # 1 
150 1 1 0.000000 15.486900 2.734600 12.006600 # 1 
151 1 1 0.000000 4.774900 4.912300 20.895100 # 1 
152 1 1 0.000000 13.064900 22.315701 23.724600 # 1 
153 1 1 0.000000 14.752200 11.816200 28.531000 # 1 
154 1 1 0.000000 9.950400 1.163600 3.729600 # 1 
155 1 1 0.000000 24.644400 14.526100 1.023400 # 1 
156 1 1 0.000000 4.441900 2.678100 18.015600 # 1 
157 1 1 0.000000 21.983000 24.589800 20.200800 # 1 
158 1 1 0.000000 20.988300 11.323600 22.363501 # 1 
159 1 1 0.000000 23.016199 10.602200 24.991400 # 1 
160 1 1 0.000000 14.338300 0.889200 25.045200 # 1 
161 1 1 0.000000 21.779600 13.203600 23.681601 # 1 
162 1 1 0.000000 22.420601 9.367800 7.889900 # 1 
163 1 1 0.000000 25.142700 8.400400 1.880100 # 1 
164 1 1 0.000000 20.507799 9.054000 20.844500 # 1 
165 1 1 0.000000 11.025200 9.305200 1.804000 # 1 
166 1 1 0.000000 15.689000 0.628200 13.236700 # 1 
167 1 1 0.000000 24.079201 22.374001 21.782400 # 1 
168 1 1 0.000000 12.133500 19.142099 27.273300 # 1 
169 1 1 0.000000 14.541600 18.298000 18.279200 # 1 
170 1 1 0.000000 15.747600 9.777800 16.815001 # 1 
171 1 1 0.000000 9.032700 14.453000 20.413700 # 1 
172 1 1 0.000000 7.639000 23.671700 17.342300 # 1 
173 1 1 0.000000 13.002400 19.403700 4.221700 # 1 
174 1 1 0.000000 10.655800 23.087299 11.553400 # 1 
175 1 1 0.000000 16.875500 6.751300 14.991500 # 1 
176 1 1 0.000000 17.057400 11.626700 17.572800 # 1 
177 1 1 0.000000 21.148199 12.806900 8.969700 # 1 
178 1 1 0.000000 13.801500 3.058500 21.516399 # 1 
179 1 1 0.000000 1.230900 6.547900 26.603001 # 1 
180 1 1 0.000000 20.635700 11.112200 5.034800 # 1 
181 1 1 0.000000 16.047199 19.073000 27.980400 # 1 
182 1 1 0.000000 0.723200 28.680099 17.632000 # 1 
183 1 1 0.000000 14.511300 8.734100 20.264799 # 1 
184 1 1 0.000000 2.308400 25.447100 21.206100 # 1 
185 1 1 0.000000 9.448800 3.924700 20.708900 # 1 
186 1 1 0.000000 23.946199 13.350900 11.088300 # 1 
187 1 1 0.000000 15.904000 16.125401 18.379999 # 1 
188 1 1 0.000000 20.017500 12.367200 5.431700 # 1 
189 1 1 0.000000 8.684900 20.134600 18.393600 # 1 
190 1 1 0.000000 7.932600 1.190900 18.497900 # 1 
191 1 1 0.000000 3.469200 7.119100 24.333799 # 1 
192 1 1 0.000000 6.962600 24.714500 18.117201 # 1 
193 1 1 0.000000 11.323300 10.918500 17.779600 # 1 
194 1 1 0.000000 15.224600 28.708200 19.289700 # 1 
195 1 1 0.000000 22.101299 13.514000 0.980400 # 1 
196 1 1 0.000000 2.997600 18.536301 21.795300 # 1 
197 1 1 0.000000 11.731800 22.162901 11.655400 # 1 
198 1 1 0.000000 11.010600 22.571501 3.730000 # 1 
199 1 1 0.000000 8.017500 2.038100 21.069700 # 1 
200 1 1 0.000000 21.283501 16.552200 27.464800 # 1 
201 1 1 0.000000 23.224300 20.540400 24.937099 # 1 
202 1 1 0.000000 16.489000 0.557600 17.407400 # 1 
203 1 1 0.000000 3.092900 21.239201 14.537400 # 1 
204 1 1 0.000000 17.450199 26.143900 18.894199 # 1 
205 1 1 0.000000 23.297400 22.638500 20.650801 # 1 
206 1 1 0.000000 24.594700 26.121500 19.925501 # 1 
207 1 1 0.000000 0.476400 23.505199 27.758301 # 1 
208 1 1 0.000000 16.970501 19.466400 2.737000 # 1 
209 1 1 0.000000 5.336300 10.669400 25.339500 # 1 
210 1 1 0.000000 7.571600 22.355600 18.082100 # 1 
211 1 1 0.000000 9.558100 24.779800 16.290001 # 1 
212 1 1 0.000000 2.542200 1.535800 17.079700 # 1 
213 1 1 0.000000 14.355100 1.614400 23.819599 # 1 
214 1 1 0.000000 14.564200 14.871200 16.871201 # 1 
215 1 1 0.000000 12.185200 21.824499 10.336200 # 1 
216 1 1 0.000000 21.079700 9.959400 14.935800 # 1 
217 1 1 0.000000 28.003799 14.698000 19.477699 # 1 
218 1 1 0.000000 1.701900 23.915501 28.290001 # 1 
219 1 1 0.000000 21.606001 23.997601 26.357300 # 1 
220 1 1 0.000000 9.142300 2.876100 10.647800 # 1 
221 1 1 0.000000 7.569500 2.591700 6.217000 # 1 
222 1 1 0.000000 13.612700 9.382300 0.762400 # 1 
223 1 1 0.000000 25.302601 11.583000 26.910400 # 1 
224 1 1 0.000000 0.892400 3.370000 18.361099 # 1 
225 1 1 0.000000 7.768800 28.606701 18.933300 # 1 
226 1 1 0.000000 2.162700 21.631599 18.444300 # 1 
227 1 1 0.000000 8.468100 9.955500 21.789700 # 1 
228 1 1 0.000000 8.424600 19.305901 19.531099 # 1 
229 1 1 0.000000 7.475800 25.977100 18.484200 # 1 
230 1 1 0.000000 10.647400 14.136700 1.080100 # 1 
231 1 1 0.000000 10.325000 6.320600 6.296900 # 1 
232 1 1 0.000000 25.040899 26.227301 28.265499 # 1 
233 1 1 0.000000 20.767500 23.885000 19.978500 # 1 
234 1 1 0.000000 17.377300 12.614700 24.283899 # 1 
235 1 1 0.000000 15.865400 19.461901 0.547400 # 1 
236 1 1 0.000000 21.331800 12.253500 25.752501 # 1 
237 1 1 0.000000 19.338900 10.424100 16.583300 # 1 
238 1 1 0.000000 14.859400 3.867200 27.198700 # 1 
239 1 1 0.000000 9.751400 3.950400 8.437300 # 1 
240 1 1 0.000000 15.114100 19.247900 10.684400 # 1 
241 1 1 0.000000 5.467500 21.702000 0.257100 # 1 
242 1 1 0.000000 22.465401 20.820299 21.801600 # 1 
243 1 1 0.000000 18.863600 13.833200 25.601500 # 1 
244 1 1 0.000000 13.930800 0.873800 11.694400 # 1 
245 1 1 0.000000 9.128800 18.088200 17.121300 # 1 
246 1 1 0.000000 27.729601 23.134701 24.934601 # 1 
247 1 1 0.000000 16.727699 16.756001 10.397000 # 1 
248 1 1 0.000000 25.829100 26.828600 19.527599 # 1 
249 1 1 0.000000 2.928400 5.307500 22.747299 # 1 
250 1 1 0.000000 2.398200 14.144500 26.763000 # 1 
251 1 1 0.000000 6.309200 24.464300 14.834500 # 1 
252 1 1 0.000000 28.773100 5.187300 28.506500 # 1 
253 1 1 0.000000 13.438800 20.092800 24.781200 # 1 
254 1 1 0.000000 16.565201 13.924400 26.389099 # 1 
255 1 1 0.000000 12.327000 3.343600 1.455400 # 1 
256 1 1 0.000000 4.126500 5.563600 21.993700 # 1 
257 1 1 0.000000 26.353100 14.183300 11.764000 # 1 
258 1 1 0.000000 10.432400 24.344801 8.065800 # 1 
259 1 1 0.000000 5.405000 23.417601 14.721500 # 1 
260 1 1 0.000000 14.684900 1.565500 26.244900 # 1 
261 1 1 0.000000 26.313700 8.089300 26.051100 # 1 
262 1 1 0.000000 24.038300 28.294701 19.772200 # 1 
263 1 1 0.000000 10.148200 5.286800 8.683600 # 1 
264 1 1 0.000000 12.117400 21.668699 12.923300 # 1 
265 1 1 0.000000 0.635800 14.679500 0.470100 # 1 
266 1 1 0.000000 13.564600 5.263200 28.670401 # 1 
267 1 1 0.000000 10.176000 25.697800 7.821000 # 1 
268 1 1 0.000000 19.750799 13.958700 0.423500 # 1 
269 1 1 0.000000 26.976000 6.056300 24.406799 # 1 
270 1 1 0.000000 8.790600 16.956100 20.466700 # 1 
271 1 1 0.000000 8.028300 19.032900 0.422600 # 1 
272 1 1 0.000000 15.594800 3.594800 16.111601 # 1 
273 1 1 0.000000 3.501400 16.455200 23.215200 # 1 
274 1 1 0.000000 14.532700 7.478600 28.132299 # 1 
275 1 1 0.000000 0.929500 16.617599 17.630100 # 1 
276 1 1 0.000000 1.300300 17.743799 16.777700 # 1 
277 1 1 0.000000 13.367500 1.158900 22.858000 # 1 
278 1 1 0.000000 10.757700 24.855400 24.042000 # 1 
279 1 1 0.000000 25.092300 21.956200 24.328899 # 1 
280 1 1 0.000000 26.062500 20.216801 27.498400 # 1 
281 1 1 0.000000 9.069600 5.681400 13.412000 # 1 
282 1 1 0.000000 4.187000 18.722200 23.944401 # 1 
283 1 1 0.000000 12.481000 23.022600 20.414900 # 1 
284 1 1 0.000000 6.003200 26.735500 3.712700 # 1 
285 1 1 0.000000 28.630301 20.024799 27.889299 # 1 
286 1 1 0.000000 22.196199 17.649700 27.719200 # 1 
287 1 1 0.000000 26.663200 1.251500 0.535400 # 1 
288 1 1 0.000000 11.019300 7.595600 4.191900 # 1 
289 1 1 0.000000 6.410900 21.275000 20.137600 # 1 
290 1 1 0.000000 27.476400 24.375299 22.903099 # 1 
291 1 1 0.000000 13.440600 21.431601 13.289600 # 1 
292 1 1 0.000000 4.915800 6.622400 22.459600 # 1 
293 1 1 0.000000 14.974300 24.752001 0.958400 # 1 
294 1 1 0.000000 26.713900 14.544600 22.994301 # 1 
295 1 1 0.000000 16.973499 10.481000 16.748800 # 1 
296 1 1 0.000000 5.912600 5.374300 4.473300 # 1 
297 1 1 0.000000 24.199699 15.079500 12.726500 # 1 
298 1 1 0.000000 5.012100 7.986900 3.438900 # 1 
299 1 1 0.000000 10.896500 27.475201 23.534700 # 1 
300 1 1 0.000000 8.018500 28.337000 11.803400 # 1 
301 1 1 0.000000 19.386801 14.718000 26.702200 # 1 
302 1 1 0.000000 22.920099 10.079200 10.061200 # 1 
303 1 1 0.000000 6.165200 16.546400 0.579300 # 1 
304 1 1 0.000000 4.204700 25.577801 16.530300 # 1 
305 1 1 0.000000 6.633400 1.913600 14.334200 # 1 
306 1 1 0.000000 26.544901 13.676500 28.731501 # 1 
307 1 1 0.000000 16.173700 4.409500 15.091100 # 1 
308 1 1 0.000000 6.583000 26.646099 13.752600 # 1 
309 1 1 0.000000 14.445100 20.182501 2.343400 # 1 
310 1 1 0.000000 3.102300 15.457300 0.920600 # 1 
311 1 1 0.000000 10.541900 11.230900 19.002399 # 1 
312 1 1 0.000000 18.633499 8.574900 13.980300 # 1 
313 1 1 0.000000 18.466101 22.934700 23.242701 # 1 
314 1 1 0.000000 16.244600 2.833900 13.181000 # 1 
315 1 1 0.000000 3.329400 25.619301 20.255600 # 1 
316 1 1 0.000000 26.900700 24.618099 27.912600 # 1 
317 1 1 0.000000 22.246201 9.244200 14.483400 # 1 
318 1 1 0.000000 16.434200 5.658200 23.696501 # 1 
319 1 1 0.000000 14.353100 7.605900 21.184999 # 1 
320 1 1 0.000000 13.275600 21.537201 17.073999 # 1 
321 1 1 0.000000 3.598600 1.949600 3.565300 # 1 
322 1 1 0.000000 7.633700 15.361400 22.401600 # 1 
323 1 1 0.000000 5.400600 23.166401 18.989201 # 1 
324 1 1 0.000000 9.207300 0.775900 4.520200 # 1 
325 1 1 0.000000 23.461100 15.330100 17.127001 # 1 
326 1 1 0.000000 15.650200 18.064400 20.677601 # 1 
327 1 1 0.000000 14.446900 16.499901 5.910500 # 1 
328 1 1 0.000000 17.295799 15.659000 2.960600 # 1 
329 1 1 0.000000 16.947100 11.008200 8.549900 # 1 
330 1 1 0.000000 14.279300 6.950500 7.725800 # 1 
331 1 1 0.000000 11.208200 28.672300 22.834200 # 1 
332 1 1 0.000000 21.584900 11.362400 2.611700 # 1 
333 1 1 0.000000 28.339500 15.743700 15.833600 # 1 
334 1 1 0.000000 12.148000 22.333799 4.384500 # 1 
335 1 1 0.000000 12.070000 15.911100 16.166599 # 1 
336 1 1 0.000000 12.468900 7.343200 0.838200 # 1 
337 1 1 0.000000 15.170400 21.104900 23.486500 # 1 
338 1 1 0.000000 24.266199 5.667100 12.940600 # 1 
339 1 1 0.000000 20.382299 23.178900 26.424200 # 1 
340 1 1 0.000000 8.960900 24.392700 4.586300 # 1 
341 1 1 0.000000 8.658700 21.840900 14.249200 # 1 
342 1 1 0.000000 20.325001 19.751101 21.406300 # 1 
343 1 1 0.000000 17.970699 16.320101 5.487700 # 1 
344 1 1 0.000000 1.643700 4.259900 20.924900 # 1 
345 1 1 0.000000 10.881100 15.403200 1.405100 # 1 
346 1 1 0.000000 13.999600 3.886500 28.399599 # 1 
347 1 1 0.000000 26.408899 15.041100 17.708300 # 1 
348 1 1 0.000000 17.763000 24.852301 18.376900 # 1 
349 1 1 0.000000 9.510300 18.430201 22.419001 # 1 
350 1 1 0.000000 16.251600 9.181400 23.804399 # 1 
351 1 1 0.000000 0.808300 6.251600 27.902399 # 1 
352 1 1 0.000000 10.825900 20.098801 15.995500 # 1 
353 1 1 0.000000 21.168200 8.908000 22.114300 # 1 
354 1 1 0.000000 15.212400 27.409800 14.741500 # 1 
355 1 1 0.000000 9.517900 16.046900 18.450001 # 1 
356 1 1 0.000000 19.294300 23.749901 22.477100 # 1 
357 1 1 0.000000 22.885099 15.262300 14.452700 # 1 
358 1 1 0.000000 6.513600 24.583200 2.973900 # 1 
359 1 1 0.000000 23.859600 20.468399 26.235399 # 1 
360 1 1 0.000000 19.314899 23.516100 28.679001 # 1 
361 1 1 0.000000 15.308000 6.071600 9.938300 # 1 
362 1 1 0.000000 26.958799 23.472700 23.792801 # 1 
363 1 1 0.000000 18.178101 9.931400 20.968300 # 1 
364 1 1 0.000000 22.670401 11.835700 25.576500 # 1 
365 1 1 0.000000 21.937000 6.732300 21.160601 # 1 
366 1 1 0.000000 10.212600 17.805201 27.301901 # 1 
367 1 1 0.000000 16.645901 22.999599 16.765800 # 1 
368 1 1 0.000000 23.614799 0.602400 20.459200 # 1 
369 1 1 0.000000 3.987100 10.454200 27.442400 # 1 
370 1 1 0.000000 7.453700 27.954100 5.040200 # 1 
371 1 1 0.000000 21.823999 25.670000 21.098499 # 1 
372 1 1 0.000000 16.486401 6.962000 24.158400 # 1 
373 1 1 0.000000 16.285500 15.313700 26.737200 # 1 
374 1 1 0.000000 8.567100 7.875200 4.225400 # 1 
375 1 1 0.000000 16.592199 8.292700 9.334300 # 1 
376 1 1 0.000000 10.720500 16.401699 16.504200 # 1 
377 1 1 0.000000 26.423000 7.831900 28.626801 # 1 
378 1 1 0.000000 21.197800 13.468800 21.460800 # 1 
379 1 1 0.000000 1.255700 5.695400 24.283300 # 1 
380 1 1 0.000000 22.884001 11.331500 1.901500 # 1 
381 1 1 0.000000 15.863100 9.221300 20.311501 # 1 
382 1 1 0.000000 22.207600 24.770800 27.365000 # 1 
383 1 1 0.000000 21.507000 14.883700 12.407000 # 1 
384 1 1 0.000000 24.433500 4.468300 27.980600 # 1 
385 1 1 0.000000 12.133700 15.900500 1.640100 # 1 
386 1 1 0.000000 17.652201 15.166800 19.573999 # 1 
387 1 1 0.000000 6.337800 2.796700 19.439301 # 1 
388 1 1 0.000000 15.899700 9.598100 1.144600 # 1 
389 1 1 0.000000 18.355000 12.080100 3.504500 # 1 
390 1 1 0.000000 3.639200 10.588600 1.155400 # 1 
391 1 1 0.000000 5.988600 6.663500 21.803200 # 1 
392 1 1 0.000000 7.696500 21.719900 22.047899 # 1 
393 1 1 0.000000 1.171300 17.674999 15.312500 # 1 
394 1 1 0.000000 12.192500 6.945200 16.388599 # 1 
395 1 1 0.000000 1.048400 25.891899 20.760401 # 1 
396 1 1 0.000000 11.246700 7.078800 5.499400 # 1 
397 1 1 0.000000 20.394501 18.137899 25.690300 # 1 
398 1 1 0.000000 8.732000 0.403600 10.962300 # 1 
399 1 1 0.000000 18.441200 16.628500 13.292700 # 1 
400 1 1 0.000000 16.713499 20.044800 27.120899 # 1 
401 1 1 0.000000 27.907499 6.351500 25.473700 # 1 
402 1 1 0.000000 8.518600 17.700199 25.115400 # 1 
403 1 1 0.000000 14.416100 19.994801 23.796101 # 1 
404 1 1 0.000000 6.009800 25.826500 14.783400 # 1 
405 1 1 0.000000 7.065300 1.433200 5.652000 # 1 
406 1 1 0.000000 16.109501 27.587400 15.836100 # 1 
407 1 1 0.000000 19.400801 22.841200 27.337299 # 1 
408 1 1 0.000000 19.484301 24.470900 20.117300 # 1 
409 1 1 0.000000 10.783400 23.732901 9.330100 # 1 
410 1 1 0.000000 27.507099 25.715799 20.968399 # 1 
411 1 1 0.000000 12.762100 25.138201 25.784100 # 1 
412 1 1 0.000000 2.045500 14.425700 0.794100 # 1 
413 1 1 0.000000 24.190201 8.599900 24.866100 # 1 
414 1 1 0.000000 2.168600 22.632500 16.372700 # 1 
415 1 1 0.000000 12.140500 4.778600 1.738300 # 1 
416 1 1 0.000000 28.701799 3.741800 19.269699 # 1 
417 1 1 0.000000 4.719500 9.128200 2.668400 # 1 
418 1 1 0.000000 12.159300 6.202100 7.995300 # 1 
419 1 1 0.000000 10.484200 23.692600 6.801800 # 1 
420 1 1 0.000000 17.053499 11.578500 3.940600 # 1 
421 1 1 0.000000 28.594500 0.031700 1.455500 # 1 
422 1 1 0.000000 23.208700 4.341900 25.598301 # 1 
423 1 1 0.000000 13.846300 1.830300 28.501900 # 1 
424 1 1 0.000000 11.017100 19.328300 0.497700 # 1 
425 1 1 0.000000 16.076900 11.383100 26.754801 # 1 
426 1 1 0.000000 8.703800 23.571501 3.440200 # 1 
427 1 1 0.000000 15.453400 5.007100 10.935300 # 1 
428 1 1 0.000000 13.937900 18.150400 7.469000 # 1 
429 1 1 0.000000 16.864401 17.384501 20.262501 # 1 
430 1 1 0.000000 3.028700 19.957399 21.641399 # 1 
431 1 1 0.000000 22.208099 18.851000 26.958099 # 1 
432 1 1 0.000000 0.360600 1.281800 1.856700 # 1 
433 1 1 0.000000 1.437600 21.500099 26.924200 # 1 
434 1 1 0.000000 15.474100 3.459100 24.853300 # 1 
435 1 1 0.000000 3.160200 13.051100 27.223400 # 1 
436 1 1 0.000000 22.113100 10.347400 8.837900 # 1 
437 1 1 0.000000 13.992900 17.981100 1.396800 # 1 
438 1 1 0.000000 15.792100 17.267500 9.404700 # 1 
439 1 1 0.000000 7.008200 2.197200 18.313299 # 1 
440 1 1 0.000000 4.622400 25.663700 20.755301 # 1 
441 1 1 0.000000 4.098300 22.752701 19.335100 # 1 
442 1 1 0.000000 26.743700 24.827700 21.751801 # 1 
443 1 1 0.000000 9.618700 26.939899 23.453199 # 1 
444 1 1 0.000000 13.310000 19.352301 21.722000 # 1 
445 1 1 0.000000 22.805000 26.025299 26.990000 # 1 
446 1 1 0.000000 23.352900 5.097400 20.540100 # 1 
447 1 1 0.000000 9.716900 25.754601 13.860100 # 1 
448 1 1 0.000000 28.300100 24.471300 28.131001 # 1 
449 1 1 0.000000 11.206300 0.463700 10.685600 # 1 
450 1 1 0.000000 17.608200 25.196100 21.213600 # 1 
451 1 1 0.000000 16.244699 7.072800 10.015400 # 1 
452 1 1 0.000000 10.169500 25.399000 15.103800 # 1 
453 1 1 0.000000 19.353800 17.665300 17.454599 # 1 
454 1 1 0.000000 12.634200 5.705300 16.839199 # 1 
455 1 1 0.000000 7.686700 17.146900 24.117100 # 1 
456 1 1 0.000000 15.039800 28.205200 13.554400 # 1 
457 1 1 0.000000 8.898200 0.186700 22.269899 # 1 
458 1 1 0.000000 26.148800 18.296499 0.235300 # 1 
459 1 1 0.000000 12.057400 8.339500 19.800900 # 1 
460 1 1 0.000000 13.246800 7.923600 16.435699 # 1 
461 1 1 0.000000 15.125000 7.977800 7.281200 # 1 
462 1 1 0.000000 13.520600 11.861800 0.448600 # 1 
463 1 1 0.000000 22.698099 9.098600 5.394700 # 1 
464 1 1 0.000000 22.862801 3.785400 23.184700 # 1 
465 1 1 0.000000 23.400801 17.705299 28.464701 # 1 
466 1 1 0.000000 6.073600 5.591800 20.856501 # 1 
467 1 1 0.000000 21.461300 10.072500 22.917601 # 1 
468 1 1 0.000000 0.310100 14.857900 20.335199 # 1 
469 1 1 0.000000 13.813500 28.339199 25.118000 # 1 
470 1 1 0.000000 14.924800 18.410601 9.568300 # 1 
471 1 1 0.000000 7.352100 3.416900 16.188801 # 1 
472 1 1 0.000000 23.569300 21.271299 22.564400 # 1 
473 1 1 0.000000 12.212600 7.864300 3.365300 # 1 
474 1 1 0.000000 16.084900 12.927800 7.202400 # 1 
475 1 1 0.000000 9.112600 15.732400 19.781799 # 1 
476 1 1 0.000000 9.368500 13.653300 1.249700 # 1 
477 1 1 0.000000 12.870300 5.848700 9.200300 # 1 
478 1 1 0.000000 19.913900 11.561300 21.392900 # 1 
479 1 1 0.000000 17.050400 22.616301 23.051800 # 1 
480 1 1 0.000000 11.508500 25.672899 15.152100 # 1 
481 1 1 0.000000 6.230500 19.542000 14.269000 # 1 
482 1 1 0.000000 8.517300 11.375900 1.903900 # 1 
483 1 1 0.000000 2.935200 22.525801 15.246600 # 1 
484 1 1 0.000000 13.585000 27.321100 20.231400 # 1 
485 1 1 0.000000 3.030300 27.554001 17.057800 # 1 
486 1 1 0.000000 1.166600 1.158400 17.167299 # 1 
487 1 1 0.000000 16.260900 7.009900 25.548401 # 1 
488 1 1 0.000000 9.439900 20.121500 16.079901 # 1 
489 1 1 0.000000 27.003300 5.185300 23.341200 # 1 
490 1 1 0.000000 24.576300 7.707100 4.490400 # 1 
491 1 1 0.000000 25.638599 14.715500 19.956200 # 1 
492 1 1 0.000000 3.745500 20.013100 23.908800 # 1 
493 1 1 0.000000 23.749800 10.241600 2.125600 # 1 
494 1 1 0.000000 6.927100 22.670900 1.718100 # 1 
495 1 1 0.000000 21.625299 26.260099 23.489799 # 1 
496 1 1 0.000000 21.024900 21.419800 19.882000 # 1 
497 1 1 0.000000 2.700900 22.006100 26.716999 # 1 
498 1 1 0.000000 25.523001 4.397500 21.497101 # 1 
499 1 1 0.000000 15.407800 22.698299 16.146700 # 1 
500 1 1 0.000000 7.539600 9.761900 3.072500 # 1 
501 1 1 0.000000 6.529500 26.597601 19.335100 # 1 
502 1 1 0.000000 1.195800 20.335100 27.620199 # 1 
503 1 1 0.000000 15.859600 1.800100 17.454500 # 1 
504 1 1 0.000000 10.358200 5.012300 17.475700 # 1 
505 1 1 0.000000 16.489799 1.366700 15.387800 # 1 
506 1 1 0.000000 7.211000 11.786600 2.146700 # 1 
507 1 1 0.000000 17.951401 8.819400 15.262200 # 1 
508 1 1 0.000000 20.677799 8.925700 28.134001 # 1 
509 1 1 0.000000 11.166300 26.141300 19.398701 # 1 
510 1 1 0.000000 14.165100 20.306801 11.051500 # 1 
511 1 1 0.000000 13.115100 26.059999 20.795099 # 1 
512 1 1 0.000000 6.850800 11.251500 23.340200 # 1 
513 1 1 0.000000 12.894400 22.957701 27.309000 # 1 
514 1 1 0.000000 23.290300 23.991600 20.255899 # 1 
515 1 1 0.000000 3.648500 26.335100 17.624800 # 1 
516 1 1 0.000000 25.452499 1.010200 28.650600 # 1 
517 1 1 0.000000 15.139600 13.062400 27.950300 # 1 
518 1 1 0.000000 5.409900 8.606600 23.778900 # 1 
519 1 1 0.000000 17.557100 9.163200 10.019000 # 1 
520 1 1 0.000000 14.502600 4.001300 16.852900 # 1 
521 1 1 0.000000 8.580000 2.490100 7.113500 # 1 
522 1 1 0.000000 7.814300 4.067100 13.897600 # 1 
523 1 1 0.000000 15.350500 21.302900 2.578500 # 1 
524 1 1 0.000000 14.774900 3.560900 22.398199 # 1 
525 1 1 0.000000 6.265500 7.754400 4.090300 # 1 
526 1 1 0.000000 6.552000 18.173201 26.652399 # 1 
527 1 1 0.000000 12.567900 28.100800 19.620001 # 1 
528 1 1 0.000000 5.325400 22.214600 22.128901 # 1 
529 1 1 0.000000 5.713700 15.267800 1.080200 # 1 
530 1 1 0.000000 18.150299 8.849700 11.256500 # 1 
531 1 1 0.000000 13.846100 5.278000 20.990601 # 1 
532 1 1 0.000000 19.382999 19.169901 22.277500 # 1 
533 1 1 0.000000 22.885099 11.052500 11.137100 # 1 
534 1 1 0.000000 13.389200 6.595100 20.761000 # 1 
535 1 1 0.000000 19.646500 19.649300 18.953501 # 1 
536 1 1 0.000000 22.204901 21.691700 20.684200 # 1 
537 1 1 0.000000 16.936300 18.541100 22.734400 # 1 
538 1 1 0.000000 19.369699 13.553800 19.850500 # 1 
539 1 1 0.000000 3.673800 17.865999 22.912201 # 1 
540 1 1 0.000000 2.508300 22.376499 24.333799 # 1 
541 1 1 0.000000 16.346201 12.440000 4.893200 # 1 
542 1 1 0.000000 23.231199 5.729300 25.272699 # 1 
543 1 1 0.000000 5.498300 21.016899 14.064000 # 1 
544 1 1 0.000000 18.265100 17.550301 24.604000 # 1 
545 1 1 0.000000 6.511700 8.889900 22.878599 # 1 
546 1 1 0.000000 21.988400 19.826500 24.752399 # 1 
547 1 1 0.000000 18.769100 10.093800 0.417300 # 1 
548 1 1 0.000000 15.593900 8.346700 27.620001 # 1 
549 1 1 0.000000 7.569600 26.111700 12.898400 # 1 
550 1 1 0.000000 20.554800 11.334800 7.348700 # 1 
551 1 1 0.000000 23.141899 8.640100 23.938000 # 1 
552 1 1 0.000000 2.045000 19.322599 28.263300 # 1 
553 1 1 0.000000 22.562000 27.951200 25.535900 # 1 
554 1 1 0.000000 16.462601 26.617800 16.801500 # 1 
555 1 1 0.000000 18.596500 12.630300 23.522301 # 1 
556 1 1 0.000000 1.313100 24.304501 23.203600 # 1 
557 1 1 0.000000 19.006800 14.959600 20.024099 # 1 
558 1 1 0.000000 12.174300 25.392700 19.979401 # 1 
559 1 1 0.000000 15.717500 8.482800 16.236799 # 1 
560 1 1 0.000000 20.444099 12.075100 2.064200 # 1 
561 1 1 0.000000 24.565399 15.517900 16.237499 # 1 
562 1 1 0.000000 7.329100 10.031700 22.671301 # 1 
563 1 1 0.000000 13.362800 26.150999 26.607401 # 1 
564 1 1 0.000000 23.405800 9.348200 3.111800 # 1 
565 1 1 0.000000 15.220900 26.083500 1.634500 # 1 
566 1 1 0.000000 10.142800 26.762100 10.702400 # 1 
567 1 1 0.000000 10.039200 21.990900 1.664900 # 1 
568 1 1 0.000000 27.834900 1.954700 18.074699 # 1 
569 1 1 0.000000 24.348200 8.283900 3.170000 # 1 
570 1 1 0.000000 11.841700 17.131500 2.109100 # 1 
571 1 1 0.000000 13.306000 20.310801 3.198200 # 1 