LAMMPS data file for aC with a PSD centered at 1.8 nm
 6200 atoms
 9212 bonds
 18276 angles
 36328 dihedrals
 0 impropers
 1 atom types
 1 bond types
 1 angle types
 1 dihedral types
 0 improper types
 -0.005800 62.814200  xlo xhi
 0.007401 62.827401  ylo yhi
 -0.031349 31.378651  zlo zhi

 Masses

 1 12.010000 # 1

 Atoms # full

1 1 1 0.000000 26.032301 4.571100 26.007999 # 1 
2 1 1 0.000000 57.442299 4.571100 26.007999 # 1 
3 1 1 0.000000 26.032301 35.981098 26.007999 # 1 
4 1 1 0.000000 57.442299 35.981098 26.007999 # 1 
5 1 1 0.000000 1.842700 21.270500 11.246700 # 1 
6 1 1 0.000000 33.252701 21.270500 11.246700 # 1 
7 1 1 0.000000 1.842700 52.680500 11.246700 # 1 
8 1 1 0.000000 33.252701 52.680500 11.246700 # 1 
9 1 1 0.000000 24.930000 23.347200 22.457399 # 1 
10 1 1 0.000000 56.340000 23.347200 22.457399 # 1 
11 1 1 0.000000 24.930000 54.757198 22.457399 # 1 
12 1 1 0.000000 56.340000 54.757198 22.457399 # 1 
13 1 1 0.000000 18.289400 27.527599 19.315901 # 1 
14 1 1 0.000000 49.699402 27.527599 19.315901 # 1 
15 1 1 0.000000 18.289400 58.937599 19.315901 # 1 
16 1 1 0.000000 49.699402 58.937599 19.315901 # 1 
17 1 1 0.000000 26.421499 10.662500 26.243500 # 1 
18 1 1 0.000000 57.831501 10.662500 26.243500 # 1 
19 1 1 0.000000 26.421499 42.072498 26.243500 # 1 
20 1 1 0.000000 57.831501 42.072498 26.243500 # 1 
21 1 1 0.000000 12.657400 19.347799 12.917000 # 1 
22 1 1 0.000000 44.067402 19.347799 12.917000 # 1 
23 1 1 0.000000 12.657400 50.757801 12.917000 # 1 
24 1 1 0.000000 44.067402 50.757801 12.917000 # 1 
25 1 1 0.000000 4.866500 10.285700 28.249100 # 1 
26 1 1 0.000000 36.276501 10.285700 28.249100 # 1 
27 1 1 0.000000 4.866500 41.695702 28.249100 # 1 
28 1 1 0.000000 36.276501 41.695702 28.249100 # 1 
29 1 1 0.000000 28.084900 17.799700 15.964400 # 1 
30 1 1 0.000000 59.494900 17.799700 15.964400 # 1 
31 1 1 0.000000 28.084900 49.209702 15.964400 # 1 
32 1 1 0.000000 59.494900 49.209702 15.964400 # 1 
33 1 1 0.000000 3.771500 20.617500 18.692200 # 1 
34 1 1 0.000000 35.181499 20.617500 18.692200 # 1 
35 1 1 0.000000 3.771500 52.027500 18.692200 # 1 
36 1 1 0.000000 35.181499 52.027500 18.692200 # 1 
37 1 1 0.000000 26.210300 4.300200 2.033500 # 1 
38 1 1 0.000000 57.620300 4.300200 2.033500 # 1 
39 1 1 0.000000 26.210300 35.710201 2.033500 # 1 
40 1 1 0.000000 57.620300 35.710201 2.033500 # 1 
41 1 1 0.000000 19.178900 24.685101 20.730000 # 1 
42 1 1 0.000000 50.588902 24.685101 20.730000 # 1 
43 1 1 0.000000 19.178900 56.095100 20.730000 # 1 
44 1 1 0.000000 50.588902 56.095100 20.730000 # 1 
45 1 1 0.000000 3.720200 27.556400 12.752600 # 1 
46 1 1 0.000000 35.130199 27.556400 12.752600 # 1 
47 1 1 0.000000 3.720200 58.966400 12.752600 # 1 
48 1 1 0.000000 35.130199 58.966400 12.752600 # 1 
49 1 1 0.000000 1.254800 26.114300 16.662701 # 1 
50 1 1 0.000000 32.664799 26.114300 16.662701 # 1 
51 1 1 0.000000 1.254800 57.524300 16.662701 # 1 
52 1 1 0.000000 32.664799 57.524300 16.662701 # 1 
53 1 1 0.000000 26.528099 7.731500 1.183900 # 1 
54 1 1 0.000000 57.938099 7.731500 1.183900 # 1 
55 1 1 0.000000 26.528099 39.141499 1.183900 # 1 
56 1 1 0.000000 57.938099 39.141499 1.183900 # 1 
57 1 1 0.000000 17.898199 27.384399 22.002100 # 1 
58 1 1 0.000000 49.308201 27.384399 22.002100 # 1 
59 1 1 0.000000 17.898199 58.794399 22.002100 # 1 
60 1 1 0.000000 49.308201 58.794399 22.002100 # 1 
61 1 1 0.000000 8.408900 19.143499 19.795000 # 1 
62 1 1 0.000000 39.818901 19.143499 19.795000 # 1 
63 1 1 0.000000 8.408900 50.553501 19.795000 # 1 
64 1 1 0.000000 39.818901 50.553501 19.795000 # 1 
65 1 1 0.000000 15.992000 16.523399 4.692800 # 1 
66 1 1 0.000000 47.402000 16.523399 4.692800 # 1 
67 1 1 0.000000 15.992000 47.933399 4.692800 # 1 
68 1 1 0.000000 47.402000 47.933399 4.692800 # 1 
69 1 1 0.000000 23.973700 14.625200 5.922500 # 1 
70 1 1 0.000000 55.383701 14.625200 5.922500 # 1 
71 1 1 0.000000 23.973700 46.035198 5.922500 # 1 
72 1 1 0.000000 55.383701 46.035198 5.922500 # 1 
73 1 1 0.000000 4.918100 10.011000 29.656500 # 1 
74 1 1 0.000000 36.328098 10.011000 29.656500 # 1 
75 1 1 0.000000 4.918100 41.421001 29.656500 # 1 
76 1 1 0.000000 36.328098 41.421001 29.656500 # 1 
77 1 1 0.000000 31.356300 19.551701 11.610300 # 1 
78 1 1 0.000000 62.766300 19.551701 11.610300 # 1 
79 1 1 0.000000 31.356300 50.961700 11.610300 # 1 
80 1 1 0.000000 62.766300 50.961700 11.610300 # 1 
81 1 1 0.000000 26.462999 12.055300 25.877501 # 1 
82 1 1 0.000000 57.873001 12.055300 25.877501 # 1 
83 1 1 0.000000 26.462999 43.465302 25.877501 # 1 
84 1 1 0.000000 57.873001 43.465302 25.877501 # 1 
85 1 1 0.000000 3.821600 26.980499 17.387699 # 1 
86 1 1 0.000000 35.231602 26.980499 17.387699 # 1 
87 1 1 0.000000 3.821600 58.390499 17.387699 # 1 
88 1 1 0.000000 35.231602 58.390499 17.387699 # 1 
89 1 1 0.000000 20.016701 1.684300 13.898900 # 1 
90 1 1 0.000000 51.426701 1.684300 13.898900 # 1 
91 1 1 0.000000 20.016701 33.094299 13.898900 # 1 
92 1 1 0.000000 51.426701 33.094299 13.898900 # 1 
93 1 1 0.000000 15.274100 9.860500 3.690200 # 1 
94 1 1 0.000000 46.684101 9.860500 3.690200 # 1 
95 1 1 0.000000 15.274100 41.270500 3.690200 # 1 
96 1 1 0.000000 46.684101 41.270500 3.690200 # 1 
97 1 1 0.000000 27.653601 16.858801 16.860300 # 1 
98 1 1 0.000000 59.063599 16.858801 16.860300 # 1 
99 1 1 0.000000 27.653601 48.268799 16.860300 # 1 
100 1 1 0.000000 59.063599 48.268799 16.860300 # 1 
101 1 1 0.000000 1.409100 5.826300 9.549800 # 1 
102 1 1 0.000000 32.819099 5.826300 9.549800 # 1 
103 1 1 0.000000 1.409100 37.236301 9.549800 # 1 
104 1 1 0.000000 32.819099 37.236301 9.549800 # 1 
105 1 1 0.000000 18.078199 26.195200 9.574000 # 1 
106 1 1 0.000000 49.488201 26.195200 9.574000 # 1 
107 1 1 0.000000 18.078199 57.605202 9.574000 # 1 
108 1 1 0.000000 49.488201 57.605202 9.574000 # 1 
109 1 1 0.000000 27.621300 16.674801 9.886900 # 1 
110 1 1 0.000000 59.031300 16.674801 9.886900 # 1 
111 1 1 0.000000 27.621300 48.084801 9.886900 # 1 
112 1 1 0.000000 59.031300 48.084801 9.886900 # 1 
113 1 1 0.000000 21.989799 27.980801 7.834700 # 1 
114 1 1 0.000000 53.399799 27.980801 7.834700 # 1 
115 1 1 0.000000 21.989799 59.390800 7.834700 # 1 
116 1 1 0.000000 53.399799 59.390800 7.834700 # 1 
117 1 1 0.000000 6.910200 30.101999 19.578100 # 1 
118 1 1 0.000000 38.320202 30.101999 19.578100 # 1 
119 1 1 0.000000 6.910200 61.512001 19.578100 # 1 
120 1 1 0.000000 38.320202 61.512001 19.578100 # 1 
121 1 1 0.000000 14.630100 0.094800 27.797600 # 1 
122 1 1 0.000000 46.040100 0.094800 27.797600 # 1 
123 1 1 0.000000 14.630100 31.504801 27.797600 # 1 
124 1 1 0.000000 46.040100 31.504801 27.797600 # 1 
125 1 1 0.000000 13.993100 28.737700 26.354601 # 1 
126 1 1 0.000000 45.403099 28.737700 26.354601 # 1 
127 1 1 0.000000 13.993100 60.147701 26.354601 # 1 
128 1 1 0.000000 45.403099 60.147701 26.354601 # 1 
129 1 1 0.000000 22.309900 25.316401 3.413400 # 1 
130 1 1 0.000000 53.719898 25.316401 3.413400 # 1 
131 1 1 0.000000 22.309900 56.726398 3.413400 # 1 
132 1 1 0.000000 53.719898 56.726398 3.413400 # 1 
133 1 1 0.000000 0.453400 28.687300 7.603300 # 1 
134 1 1 0.000000 31.863400 28.687300 7.603300 # 1 
135 1 1 0.000000 0.453400 60.097301 7.603300 # 1 
136 1 1 0.000000 31.863400 60.097301 7.603300 # 1 
137 1 1 0.000000 16.554001 23.242701 6.869600 # 1 
138 1 1 0.000000 47.964001 23.242701 6.869600 # 1 
139 1 1 0.000000 16.554001 54.652699 6.869600 # 1 
140 1 1 0.000000 47.964001 54.652699 6.869600 # 1 
141 1 1 0.000000 29.257799 14.789100 2.724700 # 1 
142 1 1 0.000000 60.667801 14.789100 2.724700 # 1 
143 1 1 0.000000 29.257799 46.199100 2.724700 # 1 
144 1 1 0.000000 60.667801 46.199100 2.724700 # 1 
145 1 1 0.000000 1.724700 2.250800 12.385000 # 1 
146 1 1 0.000000 33.134701 2.250800 12.385000 # 1 
147 1 1 0.000000 1.724700 33.660801 12.385000 # 1 
148 1 1 0.000000 33.134701 33.660801 12.385000 # 1 
149 1 1 0.000000 2.392100 18.356600 19.944799 # 1 
150 1 1 0.000000 33.802101 18.356600 19.944799 # 1 
151 1 1 0.000000 2.392100 49.766602 19.944799 # 1 
152 1 1 0.000000 33.802101 49.766602 19.944799 # 1 
153 1 1 0.000000 30.446100 8.452000 9.934900 # 1 
154 1 1 0.000000 61.856098 8.452000 9.934900 # 1 
155 1 1 0.000000 30.446100 39.862000 9.934900 # 1 
156 1 1 0.000000 61.856098 39.862000 9.934900 # 1 
157 1 1 0.000000 13.779300 26.146999 19.608000 # 1 
158 1 1 0.000000 45.189301 26.146999 19.608000 # 1 
159 1 1 0.000000 13.779300 57.556999 19.608000 # 1 
160 1 1 0.000000 45.189301 57.556999 19.608000 # 1 
161 1 1 0.000000 17.408199 28.305599 13.457800 # 1 
162 1 1 0.000000 48.818199 28.305599 13.457800 # 1 
163 1 1 0.000000 17.408199 59.715599 13.457800 # 1 
164 1 1 0.000000 48.818199 59.715599 13.457800 # 1 
165 1 1 0.000000 17.361200 25.339600 0.071800 # 1 
166 1 1 0.000000 48.771198 25.339600 0.071800 # 1 
167 1 1 0.000000 17.361200 56.749599 0.071800 # 1 
168 1 1 0.000000 48.771198 56.749599 0.071800 # 1 
169 1 1 0.000000 24.362301 13.660200 10.525200 # 1 
170 1 1 0.000000 55.772301 13.660200 10.525200 # 1 
171 1 1 0.000000 24.362301 45.070202 10.525200 # 1 
172 1 1 0.000000 55.772301 45.070202 10.525200 # 1 
173 1 1 0.000000 24.967100 16.321301 27.688400 # 1 
174 1 1 0.000000 56.377102 16.321301 27.688400 # 1 
175 1 1 0.000000 24.967100 47.731300 27.688400 # 1 
176 1 1 0.000000 56.377102 47.731300 27.688400 # 1 
177 1 1 0.000000 25.160900 18.777901 24.037399 # 1 
178 1 1 0.000000 56.570900 18.777901 24.037399 # 1 
179 1 1 0.000000 25.160900 50.187901 24.037399 # 1 
180 1 1 0.000000 56.570900 50.187901 24.037399 # 1 
181 1 1 0.000000 15.857900 24.249100 20.697001 # 1 
182 1 1 0.000000 47.267899 24.249100 20.697001 # 1 
183 1 1 0.000000 15.857900 55.659100 20.697001 # 1 
184 1 1 0.000000 47.267899 55.659100 20.697001 # 1 
185 1 1 0.000000 0.912300 6.724000 14.554900 # 1 
186 1 1 0.000000 32.322300 6.724000 14.554900 # 1 
187 1 1 0.000000 0.912300 38.133999 14.554900 # 1 
188 1 1 0.000000 32.322300 38.133999 14.554900 # 1 
189 1 1 0.000000 1.583200 10.479400 19.305599 # 1 
190 1 1 0.000000 32.993198 10.479400 19.305599 # 1 
191 1 1 0.000000 1.583200 41.889400 19.305599 # 1 
192 1 1 0.000000 32.993198 41.889400 19.305599 # 1 
193 1 1 0.000000 3.319900 21.640301 16.279400 # 1 
194 1 1 0.000000 34.729900 21.640301 16.279400 # 1 
195 1 1 0.000000 3.319900 53.050301 16.279400 # 1 
196 1 1 0.000000 34.729900 53.050301 16.279400 # 1 
197 1 1 0.000000 12.799100 25.838699 14.646700 # 1 
198 1 1 0.000000 44.209099 25.838699 14.646700 # 1 
199 1 1 0.000000 12.799100 57.248699 14.646700 # 1 
200 1 1 0.000000 44.209099 57.248699 14.646700 # 1 
201 1 1 0.000000 9.139600 5.067700 24.147699 # 1 
202 1 1 0.000000 40.549599 5.067700 24.147699 # 1 
203 1 1 0.000000 9.139600 36.477699 24.147699 # 1 
204 1 1 0.000000 40.549599 36.477699 24.147699 # 1 
205 1 1 0.000000 18.230700 24.679300 29.134701 # 1 
206 1 1 0.000000 49.640701 24.679300 29.134701 # 1 
207 1 1 0.000000 18.230700 56.089298 29.134701 # 1 
208 1 1 0.000000 49.640701 56.089298 29.134701 # 1 
209 1 1 0.000000 1.579700 11.119600 11.631900 # 1 
210 1 1 0.000000 32.989700 11.119600 11.631900 # 1 
211 1 1 0.000000 1.579700 42.529598 11.631900 # 1 
212 1 1 0.000000 32.989700 42.529598 11.631900 # 1 
213 1 1 0.000000 22.748899 0.691800 24.477900 # 1 
214 1 1 0.000000 54.158901 0.691800 24.477900 # 1 
215 1 1 0.000000 22.748899 32.101799 24.477900 # 1 
216 1 1 0.000000 54.158901 32.101799 24.477900 # 1 
217 1 1 0.000000 22.936600 3.659300 4.383800 # 1 
218 1 1 0.000000 54.346600 3.659300 4.383800 # 1 
219 1 1 0.000000 22.936600 35.069302 4.383800 # 1 
220 1 1 0.000000 54.346600 35.069302 4.383800 # 1 
221 1 1 0.000000 27.429199 9.717300 7.359600 # 1 
222 1 1 0.000000 58.839199 9.717300 7.359600 # 1 
223 1 1 0.000000 27.429199 41.127300 7.359600 # 1 
224 1 1 0.000000 58.839199 41.127300 7.359600 # 1 
225 1 1 0.000000 14.502900 1.178500 23.000099 # 1 
226 1 1 0.000000 45.912899 1.178500 23.000099 # 1 
227 1 1 0.000000 14.502900 32.588501 23.000099 # 1 
228 1 1 0.000000 45.912899 32.588501 23.000099 # 1 
229 1 1 0.000000 29.982700 15.910000 20.906799 # 1 
230 1 1 0.000000 61.392700 15.910000 20.906799 # 1 
231 1 1 0.000000 29.982700 47.320000 20.906799 # 1 
232 1 1 0.000000 61.392700 47.320000 20.906799 # 1 
233 1 1 0.000000 14.761900 6.061800 19.310301 # 1 
234 1 1 0.000000 46.171902 6.061800 19.310301 # 1 
235 1 1 0.000000 14.761900 37.471802 19.310301 # 1 
236 1 1 0.000000 46.171902 37.471802 19.310301 # 1 
237 1 1 0.000000 10.375200 17.120300 19.668900 # 1 
238 1 1 0.000000 41.785198 17.120300 19.668900 # 1 
239 1 1 0.000000 10.375200 48.530300 19.668900 # 1 
240 1 1 0.000000 41.785198 48.530300 19.668900 # 1 
241 1 1 0.000000 6.487300 24.515900 10.126000 # 1 
242 1 1 0.000000 37.897301 24.515900 10.126000 # 1 
243 1 1 0.000000 6.487300 55.925900 10.126000 # 1 
244 1 1 0.000000 37.897301 55.925900 10.126000 # 1 
245 1 1 0.000000 5.753400 20.733101 9.267300 # 1 
246 1 1 0.000000 37.163399 20.733101 9.267300 # 1 
247 1 1 0.000000 5.753400 52.143101 9.267300 # 1 
248 1 1 0.000000 37.163399 52.143101 9.267300 # 1 
249 1 1 0.000000 16.034901 6.268000 13.448500 # 1 
250 1 1 0.000000 47.444901 6.268000 13.448500 # 1 
251 1 1 0.000000 16.034901 37.678001 13.448500 # 1 
252 1 1 0.000000 47.444901 37.678001 13.448500 # 1 
253 1 1 0.000000 11.376100 1.166700 24.702700 # 1 
254 1 1 0.000000 42.786098 1.166700 24.702700 # 1 
255 1 1 0.000000 11.376100 32.576698 24.702700 # 1 
256 1 1 0.000000 42.786098 32.576698 24.702700 # 1 
257 1 1 0.000000 8.577800 11.149000 21.942801 # 1 
258 1 1 0.000000 39.987801 11.149000 21.942801 # 1 
259 1 1 0.000000 8.577800 42.558998 21.942801 # 1 
260 1 1 0.000000 39.987801 42.558998 21.942801 # 1 
261 1 1 0.000000 23.428600 1.562600 28.829599 # 1 
262 1 1 0.000000 54.838600 1.562600 28.829599 # 1 
263 1 1 0.000000 23.428600 32.972599 28.829599 # 1 
264 1 1 0.000000 54.838600 32.972599 28.829599 # 1 
265 1 1 0.000000 29.153000 15.426600 13.267400 # 1 
266 1 1 0.000000 60.563000 15.426600 13.267400 # 1 
267 1 1 0.000000 29.153000 46.836601 13.267400 # 1 
268 1 1 0.000000 60.563000 46.836601 13.267400 # 1 
269 1 1 0.000000 25.469700 8.295400 21.822100 # 1 
270 1 1 0.000000 56.879700 8.295400 21.822100 # 1 
271 1 1 0.000000 25.469700 39.705399 21.822100 # 1 
272 1 1 0.000000 56.879700 39.705399 21.822100 # 1 
273 1 1 0.000000 19.585400 22.567801 29.005400 # 1 
274 1 1 0.000000 50.995399 22.567801 29.005400 # 1 
275 1 1 0.000000 19.585400 53.977798 29.005400 # 1 
276 1 1 0.000000 50.995399 53.977798 29.005400 # 1 
277 1 1 0.000000 1.856400 27.260099 15.988800 # 1 
278 1 1 0.000000 33.266399 27.260099 15.988800 # 1 
279 1 1 0.000000 1.856400 58.670101 15.988800 # 1 
280 1 1 0.000000 33.266399 58.670101 15.988800 # 1 
281 1 1 0.000000 16.215500 19.427799 5.197400 # 1 
282 1 1 0.000000 47.625500 19.427799 5.197400 # 1 
283 1 1 0.000000 16.215500 50.837799 5.197400 # 1 
284 1 1 0.000000 47.625500 50.837799 5.197400 # 1 
285 1 1 0.000000 26.137300 13.822400 7.606300 # 1 
286 1 1 0.000000 57.547298 13.822400 7.606300 # 1 
287 1 1 0.000000 26.137300 45.232399 7.606300 # 1 
288 1 1 0.000000 57.547298 45.232399 7.606300 # 1 
289 1 1 0.000000 20.946199 20.397600 28.990999 # 1 
290 1 1 0.000000 52.356201 20.397600 28.990999 # 1 
291 1 1 0.000000 20.946199 51.807598 28.990999 # 1 
292 1 1 0.000000 52.356201 51.807598 28.990999 # 1 
293 1 1 0.000000 20.381399 6.675800 5.874800 # 1 
294 1 1 0.000000 51.791401 6.675800 5.874800 # 1 
295 1 1 0.000000 20.381399 38.085800 5.874800 # 1 
296 1 1 0.000000 51.791401 38.085800 5.874800 # 1 
297 1 1 0.000000 1.751500 25.834299 9.643100 # 1 
298 1 1 0.000000 33.161499 25.834299 9.643100 # 1 
299 1 1 0.000000 1.751500 57.244301 9.643100 # 1 
300 1 1 0.000000 33.161499 57.244301 9.643100 # 1 
301 1 1 0.000000 0.789900 30.009399 7.319300 # 1 
302 1 1 0.000000 32.199902 30.009399 7.319300 # 1 
303 1 1 0.000000 0.789900 61.419399 7.319300 # 1 
304 1 1 0.000000 32.199902 61.419399 7.319300 # 1 
305 1 1 0.000000 24.861200 29.235201 21.946899 # 1 
306 1 1 0.000000 56.271198 29.235201 21.946899 # 1 
307 1 1 0.000000 24.861200 60.645199 21.946899 # 1 
308 1 1 0.000000 56.271198 60.645199 21.946899 # 1 
309 1 1 0.000000 14.316600 30.999500 0.596200 # 1 
310 1 1 0.000000 45.726601 30.999500 0.596200 # 1 
311 1 1 0.000000 14.316600 62.409500 0.596200 # 1 
312 1 1 0.000000 45.726601 62.409500 0.596200 # 1 
313 1 1 0.000000 21.231501 27.978901 9.076600 # 1 
314 1 1 0.000000 52.641499 27.978901 9.076600 # 1 
315 1 1 0.000000 21.231501 59.388901 9.076600 # 1 
316 1 1 0.000000 52.641499 59.388901 9.076600 # 1 
317 1 1 0.000000 21.829901 8.718300 18.879801 # 1 
318 1 1 0.000000 53.239899 8.718300 18.879801 # 1 
319 1 1 0.000000 21.829901 40.128300 18.879801 # 1 
320 1 1 0.000000 53.239899 40.128300 18.879801 # 1 
321 1 1 0.000000 17.592699 25.639900 28.284100 # 1 
322 1 1 0.000000 49.002701 25.639900 28.284100 # 1 
323 1 1 0.000000 17.592699 57.049900 28.284100 # 1 
324 1 1 0.000000 49.002701 57.049900 28.284100 # 1 
325 1 1 0.000000 24.299601 18.025101 26.357201 # 1 
326 1 1 0.000000 55.709599 18.025101 26.357201 # 1 
327 1 1 0.000000 24.299601 49.435101 26.357201 # 1 
328 1 1 0.000000 55.709599 49.435101 26.357201 # 1 
329 1 1 0.000000 6.469300 13.945700 6.812500 # 1 
330 1 1 0.000000 37.879299 13.945700 6.812500 # 1 
331 1 1 0.000000 6.469300 45.355701 6.812500 # 1 
332 1 1 0.000000 37.879299 45.355701 6.812500 # 1 
333 1 1 0.000000 30.755600 16.592400 7.934700 # 1 
334 1 1 0.000000 62.165600 16.592400 7.934700 # 1 
335 1 1 0.000000 30.755600 48.002399 7.934700 # 1 
336 1 1 0.000000 62.165600 48.002399 7.934700 # 1 
337 1 1 0.000000 7.421300 28.464701 11.891700 # 1 
338 1 1 0.000000 38.831299 28.464701 11.891700 # 1 
339 1 1 0.000000 7.421300 59.874699 11.891700 # 1 
340 1 1 0.000000 38.831299 59.874699 11.891700 # 1 
341 1 1 0.000000 23.487499 29.651100 8.801800 # 1 
342 1 1 0.000000 54.897499 29.651100 8.801800 # 1 
343 1 1 0.000000 23.487499 61.061100 8.801800 # 1 
344 1 1 0.000000 54.897499 61.061100 8.801800 # 1 
345 1 1 0.000000 4.588100 23.719601 18.957300 # 1 
346 1 1 0.000000 35.998100 23.719601 18.957300 # 1 
347 1 1 0.000000 4.588100 55.129601 18.957300 # 1 
348 1 1 0.000000 35.998100 55.129601 18.957300 # 1 
349 1 1 0.000000 8.544200 7.379600 23.847700 # 1 
350 1 1 0.000000 39.954201 7.379600 23.847700 # 1 
351 1 1 0.000000 8.544200 38.789600 23.847700 # 1 
352 1 1 0.000000 39.954201 38.789600 23.847700 # 1 
353 1 1 0.000000 20.692900 18.532499 0.660300 # 1 
354 1 1 0.000000 52.102901 18.532499 0.660300 # 1 
355 1 1 0.000000 20.692900 49.942501 0.660300 # 1 
356 1 1 0.000000 52.102901 49.942501 0.660300 # 1 
357 1 1 0.000000 16.182699 28.527100 20.614799 # 1 
358 1 1 0.000000 47.592701 28.527100 20.614799 # 1 
359 1 1 0.000000 16.182699 59.937099 20.614799 # 1 
360 1 1 0.000000 47.592701 59.937099 20.614799 # 1 
361 1 1 0.000000 8.873600 19.232000 16.635599 # 1 
362 1 1 0.000000 40.283600 19.232000 16.635599 # 1 
363 1 1 0.000000 8.873600 50.641998 16.635599 # 1 
364 1 1 0.000000 40.283600 50.641998 16.635599 # 1 
365 1 1 0.000000 18.045500 25.927500 27.009701 # 1 
366 1 1 0.000000 49.455502 25.927500 27.009701 # 1 
367 1 1 0.000000 18.045500 57.337502 27.009701 # 1 
368 1 1 0.000000 49.455502 57.337502 27.009701 # 1 
369 1 1 0.000000 1.000500 16.019600 6.023300 # 1 
370 1 1 0.000000 32.410500 16.019600 6.023300 # 1 
371 1 1 0.000000 1.000500 47.429600 6.023300 # 1 
372 1 1 0.000000 32.410500 47.429600 6.023300 # 1 
373 1 1 0.000000 24.165701 17.100201 28.597000 # 1 
374 1 1 0.000000 55.575699 17.100201 28.597000 # 1 
375 1 1 0.000000 24.165701 48.510201 28.597000 # 1 
376 1 1 0.000000 55.575699 48.510201 28.597000 # 1 
377 1 1 0.000000 8.537300 8.252000 16.099199 # 1 
378 1 1 0.000000 39.947300 8.252000 16.099199 # 1 
379 1 1 0.000000 8.537300 39.661999 16.099199 # 1 
380 1 1 0.000000 39.947300 39.661999 16.099199 # 1 
381 1 1 0.000000 13.347100 24.887600 20.305901 # 1 
382 1 1 0.000000 44.757099 24.887600 20.305901 # 1 
383 1 1 0.000000 13.347100 56.297600 20.305901 # 1 
384 1 1 0.000000 44.757099 56.297600 20.305901 # 1 
385 1 1 0.000000 22.618900 16.927601 9.511700 # 1 
386 1 1 0.000000 54.028900 16.927601 9.511700 # 1 
387 1 1 0.000000 22.618900 48.337601 9.511700 # 1 
388 1 1 0.000000 54.028900 48.337601 9.511700 # 1 
389 1 1 0.000000 23.328300 19.852501 25.379101 # 1 
390 1 1 0.000000 54.738300 19.852501 25.379101 # 1 
391 1 1 0.000000 23.328300 51.262501 25.379101 # 1 
392 1 1 0.000000 54.738300 51.262501 25.379101 # 1 
393 1 1 0.000000 28.314501 8.430600 12.894200 # 1 
394 1 1 0.000000 59.724499 8.430600 12.894200 # 1 
395 1 1 0.000000 28.314501 39.840500 12.894200 # 1 
396 1 1 0.000000 59.724499 39.840500 12.894200 # 1 
397 1 1 0.000000 30.432600 3.016600 6.183900 # 1 
398 1 1 0.000000 61.842602 3.016600 6.183900 # 1 
399 1 1 0.000000 30.432600 34.426601 6.183900 # 1 
400 1 1 0.000000 61.842602 34.426601 6.183900 # 1 
401 1 1 0.000000 16.613800 26.787500 11.569000 # 1 
402 1 1 0.000000 48.023800 26.787500 11.569000 # 1 
403 1 1 0.000000 16.613800 58.197498 11.569000 # 1 
404 1 1 0.000000 48.023800 58.197498 11.569000 # 1 
405 1 1 0.000000 9.311300 24.832899 19.972300 # 1 
406 1 1 0.000000 40.721298 24.832899 19.972300 # 1 
407 1 1 0.000000 9.311300 56.242901 19.972300 # 1 
408 1 1 0.000000 40.721298 56.242901 19.972300 # 1 
409 1 1 0.000000 13.834500 3.469300 3.487600 # 1 
410 1 1 0.000000 45.244499 3.469300 3.487600 # 1 
411 1 1 0.000000 13.834500 34.879299 3.487600 # 1 
412 1 1 0.000000 45.244499 34.879299 3.487600 # 1 
413 1 1 0.000000 2.269300 25.167601 17.294800 # 1 
414 1 1 0.000000 33.679298 25.167601 17.294800 # 1 
415 1 1 0.000000 2.269300 56.577599 17.294800 # 1 
416 1 1 0.000000 33.679298 56.577599 17.294800 # 1 
417 1 1 0.000000 1.141500 31.318501 12.780300 # 1 
418 1 1 0.000000 32.551498 31.318501 12.780300 # 1 
419 1 1 0.000000 1.141500 62.728500 12.780300 # 1 
420 1 1 0.000000 32.551498 62.728500 12.780300 # 1 
421 1 1 0.000000 27.650801 29.028200 5.160400 # 1 
422 1 1 0.000000 59.060799 29.028200 5.160400 # 1 
423 1 1 0.000000 27.650801 60.438202 5.160400 # 1 
424 1 1 0.000000 59.060799 60.438202 5.160400 # 1 
425 1 1 0.000000 26.985201 11.102300 7.485500 # 1 
426 1 1 0.000000 58.395199 11.102300 7.485500 # 1 
427 1 1 0.000000 26.985201 42.512299 7.485500 # 1 
428 1 1 0.000000 58.395199 42.512299 7.485500 # 1 
429 1 1 0.000000 13.637000 18.024300 8.769500 # 1 
430 1 1 0.000000 45.047001 18.024300 8.769500 # 1 
431 1 1 0.000000 13.637000 49.434299 8.769500 # 1 
432 1 1 0.000000 45.047001 49.434299 8.769500 # 1 
433 1 1 0.000000 23.743299 21.463200 6.091100 # 1 
434 1 1 0.000000 55.153301 21.463200 6.091100 # 1 
435 1 1 0.000000 23.743299 52.873199 6.091100 # 1 
436 1 1 0.000000 55.153301 52.873199 6.091100 # 1 
437 1 1 0.000000 26.862101 0.799400 18.212500 # 1 
438 1 1 0.000000 58.272099 0.799400 18.212500 # 1 
439 1 1 0.000000 26.862101 32.209400 18.212500 # 1 
440 1 1 0.000000 58.272099 32.209400 18.212500 # 1 
441 1 1 0.000000 30.520800 28.189699 7.418500 # 1 
442 1 1 0.000000 61.930801 28.189699 7.418500 # 1 
443 1 1 0.000000 30.520800 59.599701 7.418500 # 1 
444 1 1 0.000000 61.930801 59.599701 7.418500 # 1 
445 1 1 0.000000 16.194901 20.835199 5.604900 # 1 
446 1 1 0.000000 47.604900 20.835199 5.604900 # 1 
447 1 1 0.000000 16.194901 52.245201 5.604900 # 1 
448 1 1 0.000000 47.604900 52.245201 5.604900 # 1 
449 1 1 0.000000 25.176901 13.404500 31.075899 # 1 
450 1 1 0.000000 56.586899 13.404500 31.075899 # 1 
451 1 1 0.000000 25.176901 44.814499 31.075899 # 1 
452 1 1 0.000000 56.586899 44.814499 31.075899 # 1 
453 1 1 0.000000 25.129601 2.306300 1.350500 # 1 
454 1 1 0.000000 56.539600 2.306300 1.350500 # 1 
455 1 1 0.000000 25.129601 33.716301 1.350500 # 1 
456 1 1 0.000000 56.539600 33.716301 1.350500 # 1 
457 1 1 0.000000 29.471100 14.397500 11.150800 # 1 
458 1 1 0.000000 60.881100 14.397500 11.150800 # 1 
459 1 1 0.000000 29.471100 45.807499 11.150800 # 1 
460 1 1 0.000000 60.881100 45.807499 11.150800 # 1 
461 1 1 0.000000 4.912000 29.292299 9.802900 # 1 
462 1 1 0.000000 36.321999 29.292299 9.802900 # 1 
463 1 1 0.000000 4.912000 60.702301 9.802900 # 1 
464 1 1 0.000000 36.321999 60.702301 9.802900 # 1 
465 1 1 0.000000 26.416800 4.468700 28.307699 # 1 
466 1 1 0.000000 57.826801 4.468700 28.307699 # 1 
467 1 1 0.000000 26.416800 35.878700 28.307699 # 1 
468 1 1 0.000000 57.826801 35.878700 28.307699 # 1 
469 1 1 0.000000 8.759700 12.722400 8.300900 # 1 
470 1 1 0.000000 40.169701 12.722400 8.300900 # 1 
471 1 1 0.000000 8.759700 44.132401 8.300900 # 1 
472 1 1 0.000000 40.169701 44.132401 8.300900 # 1 
473 1 1 0.000000 25.164400 17.650900 23.327700 # 1 
474 1 1 0.000000 56.574402 17.650900 23.327700 # 1 
475 1 1 0.000000 25.164400 49.060902 23.327700 # 1 
476 1 1 0.000000 56.574402 49.060902 23.327700 # 1 
477 1 1 0.000000 13.920700 30.344101 28.441299 # 1 
478 1 1 0.000000 45.330700 30.344101 28.441299 # 1 
479 1 1 0.000000 13.920700 61.754101 28.441299 # 1 
480 1 1 0.000000 45.330700 61.754101 28.441299 # 1 
481 1 1 0.000000 30.173800 26.352501 16.217699 # 1 
482 1 1 0.000000 61.583801 26.352501 16.217699 # 1 
483 1 1 0.000000 30.173800 57.762501 16.217699 # 1 
484 1 1 0.000000 61.583801 57.762501 16.217699 # 1 
485 1 1 0.000000 13.431100 3.029000 10.445200 # 1 
486 1 1 0.000000 44.841099 3.029000 10.445200 # 1 
487 1 1 0.000000 13.431100 34.438999 10.445200 # 1 
488 1 1 0.000000 44.841099 34.438999 10.445200 # 1 
489 1 1 0.000000 16.626900 27.323000 22.498199 # 1 
490 1 1 0.000000 48.036900 27.323000 22.498199 # 1 
491 1 1 0.000000 16.626900 58.733002 22.498199 # 1 
492 1 1 0.000000 48.036900 58.733002 22.498199 # 1 
493 1 1 0.000000 23.799999 16.687099 29.957300 # 1 
494 1 1 0.000000 55.209999 16.687099 29.957300 # 1 
495 1 1 0.000000 23.799999 48.097099 29.957300 # 1 
496 1 1 0.000000 55.209999 48.097099 29.957300 # 1 
497 1 1 0.000000 18.473499 3.732700 17.843500 # 1 
498 1 1 0.000000 49.883499 3.732700 17.843500 # 1 
499 1 1 0.000000 18.473499 35.142700 17.843500 # 1 
500 1 1 0.000000 49.883499 35.142700 17.843500 # 1 
501 1 1 0.000000 2.585600 20.721100 19.587299 # 1 
502 1 1 0.000000 33.995602 20.721100 19.587299 # 1 
503 1 1 0.000000 2.585600 52.131100 19.587299 # 1 
504 1 1 0.000000 33.995602 52.131100 19.587299 # 1 
505 1 1 0.000000 10.527100 1.854500 25.562700 # 1 
506 1 1 0.000000 41.937099 1.854500 25.562700 # 1 
507 1 1 0.000000 10.527100 33.264500 25.562700 # 1 
508 1 1 0.000000 41.937099 33.264500 25.562700 # 1 
509 1 1 0.000000 24.191999 9.285800 19.893101 # 1 
510 1 1 0.000000 55.602001 9.285800 19.893101 # 1 
511 1 1 0.000000 24.191999 40.695801 19.893101 # 1 
512 1 1 0.000000 55.602001 40.695801 19.893101 # 1 
513 1 1 0.000000 5.544200 27.304001 19.104401 # 1 
514 1 1 0.000000 36.954201 27.304001 19.104401 # 1 
515 1 1 0.000000 5.544200 58.714001 19.104401 # 1 
516 1 1 0.000000 36.954201 58.714001 19.104401 # 1 
517 1 1 0.000000 29.957500 21.350800 21.285299 # 1 
518 1 1 0.000000 61.367500 21.350800 21.285299 # 1 
519 1 1 0.000000 29.957500 52.760799 21.285299 # 1 
520 1 1 0.000000 61.367500 52.760799 21.285299 # 1 
521 1 1 0.000000 22.022900 21.366100 26.522301 # 1 
522 1 1 0.000000 53.432899 21.366100 26.522301 # 1 
523 1 1 0.000000 22.022900 52.776100 26.522301 # 1 
524 1 1 0.000000 53.432899 52.776100 26.522301 # 1 
525 1 1 0.000000 1.458100 18.164499 14.029000 # 1 
526 1 1 0.000000 32.868099 18.164499 14.029000 # 1 
527 1 1 0.000000 1.458100 49.574501 14.029000 # 1 
528 1 1 0.000000 32.868099 49.574501 14.029000 # 1 
529 1 1 0.000000 24.610901 9.186900 10.506700 # 1 
530 1 1 0.000000 56.020901 9.186900 10.506700 # 1 
531 1 1 0.000000 24.610901 40.596901 10.506700 # 1 
532 1 1 0.000000 56.020901 40.596901 10.506700 # 1 
533 1 1 0.000000 23.309200 22.457500 18.933300 # 1 
534 1 1 0.000000 54.719200 22.457500 18.933300 # 1 
535 1 1 0.000000 23.309200 53.867500 18.933300 # 1 
536 1 1 0.000000 54.719200 53.867500 18.933300 # 1 
537 1 1 0.000000 27.572901 4.147700 4.215100 # 1 
538 1 1 0.000000 58.982899 4.147700 4.215100 # 1 
539 1 1 0.000000 27.572901 35.557701 4.215100 # 1 
540 1 1 0.000000 58.982899 35.557701 4.215100 # 1 
541 1 1 0.000000 1.355300 17.829700 8.533600 # 1 
542 1 1 0.000000 32.765301 17.829700 8.533600 # 1 
543 1 1 0.000000 1.355300 49.239700 8.533600 # 1 
544 1 1 0.000000 32.765301 49.239700 8.533600 # 1 
545 1 1 0.000000 17.276501 4.260600 13.688100 # 1 
546 1 1 0.000000 48.686501 4.260600 13.688100 # 1 
547 1 1 0.000000 17.276501 35.670601 13.688100 # 1 
548 1 1 0.000000 48.686501 35.670601 13.688100 # 1 
549 1 1 0.000000 6.062100 30.631201 18.542500 # 1 
550 1 1 0.000000 37.472000 30.631201 18.542500 # 1 
551 1 1 0.000000 6.062100 62.041199 18.542500 # 1 
552 1 1 0.000000 37.472000 62.041199 18.542500 # 1 
553 1 1 0.000000 15.490600 8.067700 10.375900 # 1 
554 1 1 0.000000 46.900600 8.067700 10.375900 # 1 
555 1 1 0.000000 15.490600 39.477699 10.375900 # 1 
556 1 1 0.000000 46.900600 39.477699 10.375900 # 1 
557 1 1 0.000000 18.700600 4.935000 11.214100 # 1 
558 1 1 0.000000 50.110600 4.935000 11.214100 # 1 
559 1 1 0.000000 18.700600 36.345001 11.214100 # 1 
560 1 1 0.000000 50.110600 36.345001 11.214100 # 1 
561 1 1 0.000000 29.226400 24.587700 19.575600 # 1 
562 1 1 0.000000 60.636398 24.587700 19.575600 # 1 
563 1 1 0.000000 29.226400 55.997700 19.575600 # 1 
564 1 1 0.000000 60.636398 55.997700 19.575600 # 1 
565 1 1 0.000000 19.676001 19.399700 20.135900 # 1 
566 1 1 0.000000 51.085999 19.399700 20.135900 # 1 
567 1 1 0.000000 19.676001 50.809700 20.135900 # 1 