LAMMPS data file for aC with a PSD centered at 2.1 nm
 4800 atoms
 7160 bonds
 14280 angles
 28508 dihedrals
 0 impropers
 1 atom types
 1 bond types
 1 angle types
 1 dihedral types
 0 improper types
 0.014002 57.614000  xlo xhi
 -0.082298 57.517700  ylo yhi
 0.004200 28.804199  zlo zhi

 Masses

 1 12.010000 # 1

 Atoms

1 1 1 0.000000 26.104401 7.068000 15.010400 # 1 
2 1 1 0.000000 6.372500 11.211700 23.114100 # 1 
3 1 1 0.000000 8.839900 7.404200 16.895599 # 1 
4 1 1 0.000000 24.980101 13.924100 4.793300 # 1 
5 1 1 0.000000 1.167700 8.356900 14.482300 # 1 
6 1 1 0.000000 22.536501 11.095200 4.100900 # 1 
7 1 1 0.000000 3.084000 8.413000 11.537600 # 1 
8 1 1 0.000000 22.731199 20.211399 19.826599 # 1 
9 1 1 0.000000 1.475500 13.255600 9.277100 # 1 
10 1 1 0.000000 9.126500 10.427200 11.567700 # 1 
11 1 1 0.000000 25.885201 3.592700 14.755300 # 1 
12 1 1 0.000000 13.895700 16.495001 13.552500 # 1 
13 1 1 0.000000 8.479000 10.156400 15.081400 # 1 
14 1 1 0.000000 3.060200 18.809099 16.431299 # 1 
15 1 1 0.000000 24.254801 8.156500 15.877200 # 1 
16 1 1 0.000000 23.853800 9.300300 5.048300 # 1 
17 1 1 0.000000 8.838900 9.353400 8.212600 # 1 
18 1 1 0.000000 1.562000 21.934900 9.173800 # 1 
19 1 1 0.000000 7.245800 2.770400 10.813800 # 1 
20 1 1 0.000000 20.696501 13.632000 19.902800 # 1 
21 1 1 0.000000 4.953600 13.228800 16.299000 # 1 
22 1 1 0.000000 3.016800 16.516899 9.848200 # 1 
23 1 1 0.000000 21.645201 12.347200 25.102699 # 1 
24 1 1 0.000000 7.911500 16.414000 21.575500 # 1 
25 1 1 0.000000 17.978300 12.948100 22.927601 # 1 
26 1 1 0.000000 22.231701 8.489900 8.501700 # 1 
27 1 1 0.000000 11.032000 26.014799 12.079000 # 1 
28 1 1 0.000000 23.982000 20.979900 14.598600 # 1 
29 1 1 0.000000 2.122000 24.324600 18.143900 # 1 
30 1 1 0.000000 15.906300 9.859700 14.813500 # 1 
31 1 1 0.000000 18.884501 9.829100 20.889601 # 1 
32 1 1 0.000000 23.379700 7.003100 21.493900 # 1 
33 1 1 0.000000 25.489300 21.229700 6.086000 # 1 
34 1 1 0.000000 0.645800 20.804701 13.688100 # 1 
35 1 1 0.000000 12.165600 21.591000 12.555300 # 1 
36 1 1 0.000000 27.094801 14.187200 27.090300 # 1 
37 1 1 0.000000 23.457500 8.840300 16.776899 # 1 
38 1 1 0.000000 15.967000 15.043100 13.595900 # 1 
39 1 1 0.000000 4.128200 13.097900 3.872100 # 1 
40 1 1 0.000000 7.694400 10.494200 11.483600 # 1 
41 1 1 0.000000 28.700600 26.186199 18.741301 # 1 
42 1 1 0.000000 26.103800 25.831600 10.901200 # 1 
43 1 1 0.000000 0.780600 9.751700 14.796600 # 1 
44 1 1 0.000000 12.943000 13.945800 20.989599 # 1 
45 1 1 0.000000 27.859200 16.217899 13.318100 # 1 
46 1 1 0.000000 11.994600 3.152800 9.594400 # 1 
47 1 1 0.000000 19.837601 0.772300 12.522300 # 1 
48 1 1 0.000000 24.244699 7.446900 7.621800 # 1 
49 1 1 0.000000 11.021400 14.882300 8.792900 # 1 
50 1 1 0.000000 5.257000 24.908899 10.968400 # 1 
51 1 1 0.000000 10.167100 23.988199 12.570500 # 1 
52 1 1 0.000000 10.670900 3.639100 9.859100 # 1 
53 1 1 0.000000 16.176600 7.377000 13.923000 # 1 
54 1 1 0.000000 24.963200 21.639400 15.356500 # 1 
55 1 1 0.000000 1.177900 18.730400 18.285700 # 1 
56 1 1 0.000000 10.877600 15.176500 21.187700 # 1 
57 1 1 0.000000 12.176200 14.022200 8.718000 # 1 
58 1 1 0.000000 3.475200 16.064600 23.991800 # 1 
59 1 1 0.000000 3.223300 7.198600 21.188200 # 1 
60 1 1 0.000000 8.946300 8.037000 12.155000 # 1 
61 1 1 0.000000 10.589700 12.249700 7.900300 # 1 
62 1 1 0.000000 0.829900 13.106300 0.741500 # 1 
63 1 1 0.000000 23.418301 16.305700 21.844400 # 1 
64 1 1 0.000000 26.065300 23.514200 16.095900 # 1 
65 1 1 0.000000 11.974300 15.499100 16.017099 # 1 
66 1 1 0.000000 21.349300 13.002400 18.949699 # 1 
67 1 1 0.000000 26.543501 8.032000 17.158600 # 1 
68 1 1 0.000000 27.601400 11.253700 15.448500 # 1 
69 1 1 0.000000 7.631400 8.339300 12.440700 # 1 
70 1 1 0.000000 0.109000 12.789300 14.501300 # 1 
71 1 1 0.000000 21.040100 17.764700 15.392400 # 1 
72 1 1 0.000000 13.876300 13.297800 16.493999 # 1 
73 1 1 0.000000 24.431801 6.054600 21.729200 # 1 
74 1 1 0.000000 10.134200 8.872600 8.463400 # 1 
75 1 1 0.000000 0.656500 11.757600 22.951500 # 1 
76 1 1 0.000000 21.889500 18.032700 19.962799 # 1 
77 1 1 0.000000 12.657600 9.462300 19.052299 # 1 
78 1 1 0.000000 23.506800 18.729401 28.119200 # 1 
79 1 1 0.000000 11.907300 12.818500 12.176400 # 1 
80 1 1 0.000000 5.639900 17.088301 22.579800 # 1 
81 1 1 0.000000 2.304500 10.262900 27.653099 # 1 
82 1 1 0.000000 22.260500 16.949200 15.313100 # 1 
83 1 1 0.000000 14.674500 2.080900 9.521400 # 1 
84 1 1 0.000000 23.313999 12.970000 13.910600 # 1 
85 1 1 0.000000 21.827700 21.563400 17.909300 # 1 
86 1 1 0.000000 28.150600 28.483700 20.297800 # 1 
87 1 1 0.000000 14.152100 6.064600 10.586100 # 1 
88 1 1 0.000000 3.000200 14.705100 16.310801 # 1 
89 1 1 0.000000 20.844801 8.338900 12.735000 # 1 
90 1 1 0.000000 1.488200 23.264999 21.358101 # 1 
91 1 1 0.000000 5.401300 7.693200 19.857500 # 1 
92 1 1 0.000000 2.729100 12.531200 17.252800 # 1 
93 1 1 0.000000 3.972600 22.838100 17.556299 # 1 
94 1 1 0.000000 7.977100 18.779900 17.463301 # 1 
95 1 1 0.000000 9.874200 11.610100 11.522100 # 1 
96 1 1 0.000000 19.018700 8.119900 18.992901 # 1 
97 1 1 0.000000 22.546101 11.204100 25.143499 # 1 
98 1 1 0.000000 16.093201 14.599500 18.041100 # 1 
99 1 1 0.000000 28.487900 19.509800 27.273500 # 1 
100 1 1 0.000000 11.835800 15.274700 12.691200 # 1 
101 1 1 0.000000 17.139299 8.329300 11.606800 # 1 
102 1 1 0.000000 27.153700 8.841100 19.452101 # 1 
103 1 1 0.000000 25.772100 21.177900 16.475800 # 1 
104 1 1 0.000000 18.391199 25.711300 13.708100 # 1 
105 1 1 0.000000 18.452999 9.551700 14.385600 # 1 
106 1 1 0.000000 2.924100 21.965500 11.118200 # 1 
107 1 1 0.000000 17.306801 9.762100 9.625100 # 1 
108 1 1 0.000000 9.616800 19.043100 11.303900 # 1 
109 1 1 0.000000 18.789900 21.420200 14.433500 # 1 
110 1 1 0.000000 17.438499 14.738300 13.576200 # 1 
111 1 1 0.000000 26.430599 7.812100 24.356899 # 1 
112 1 1 0.000000 5.423000 13.250200 7.811300 # 1 
113 1 1 0.000000 3.876700 16.561701 1.695600 # 1 
114 1 1 0.000000 28.159401 10.020000 14.970700 # 1 
115 1 1 0.000000 11.584500 7.176000 9.656400 # 1 
116 1 1 0.000000 4.969600 17.027201 5.049400 # 1 
117 1 1 0.000000 5.742800 6.896000 17.430500 # 1 
118 1 1 0.000000 17.480101 5.243800 12.466900 # 1 
119 1 1 0.000000 17.755301 1.076900 11.268400 # 1 
120 1 1 0.000000 26.957199 1.146000 13.277600 # 1 
121 1 1 0.000000 3.987600 11.403100 8.209700 # 1 
122 1 1 0.000000 13.634900 10.194900 15.691700 # 1 
123 1 1 0.000000 24.138399 22.375099 19.889500 # 1 
124 1 1 0.000000 5.448300 17.708700 10.920100 # 1 
125 1 1 0.000000 13.947200 26.662001 11.699200 # 1 
126 1 1 0.000000 20.549400 6.988400 17.827999 # 1 
127 1 1 0.000000 24.499001 25.420500 20.131500 # 1 
128 1 1 0.000000 21.531799 15.759400 15.314900 # 1 
129 1 1 0.000000 17.104799 7.816300 17.535101 # 1 
130 1 1 0.000000 4.891500 14.264600 4.236600 # 1 
131 1 1 0.000000 5.581500 6.652100 15.037900 # 1 
132 1 1 0.000000 24.670500 20.409500 26.765301 # 1 
133 1 1 0.000000 24.761999 20.358400 5.271700 # 1 
134 1 1 0.000000 3.693800 23.048599 16.171499 # 1 
135 1 1 0.000000 28.796801 12.742100 16.993099 # 1 
136 1 1 0.000000 1.353900 2.993600 19.140699 # 1 
137 1 1 0.000000 15.353000 13.810000 13.162000 # 1 
138 1 1 0.000000 20.097099 9.956800 16.085600 # 1 
139 1 1 0.000000 28.160400 19.814899 15.410900 # 1 
140 1 1 0.000000 25.533501 15.195800 18.552000 # 1 
141 1 1 0.000000 26.118000 13.796900 3.951800 # 1 
142 1 1 0.000000 14.128300 14.699800 16.714300 # 1 
143 1 1 0.000000 8.369300 12.755000 15.279300 # 1 
144 1 1 0.000000 2.573900 19.749399 23.278299 # 1 
145 1 1 0.000000 8.573300 21.011200 13.371900 # 1 
146 1 1 0.000000 2.766000 15.160200 10.057000 # 1 
147 1 1 0.000000 26.071899 16.992800 2.199100 # 1 
148 1 1 0.000000 25.035601 25.459000 11.735400 # 1 
149 1 1 0.000000 20.955200 1.567100 13.011200 # 1 
150 1 1 0.000000 27.727800 20.441099 21.092100 # 1 
151 1 1 0.000000 24.520901 6.699900 8.808700 # 1 
152 1 1 0.000000 19.841700 11.865800 12.767200 # 1 
153 1 1 0.000000 0.550100 11.866800 18.031401 # 1 
154 1 1 0.000000 13.014800 17.914600 15.427500 # 1 
155 1 1 0.000000 24.069799 6.656400 11.327400 # 1 
156 1 1 0.000000 25.872101 12.059800 20.876699 # 1 
157 1 1 0.000000 11.906500 19.233900 10.792900 # 1 
158 1 1 0.000000 24.724400 21.486401 7.291800 # 1 
159 1 1 0.000000 23.073200 5.098500 16.057301 # 1 
160 1 1 0.000000 26.172300 22.966801 23.795300 # 1 
161 1 1 0.000000 1.506700 10.824500 28.732800 # 1 
162 1 1 0.000000 26.839600 21.295799 27.086300 # 1 
163 1 1 0.000000 20.257601 24.468599 15.524200 # 1 
164 1 1 0.000000 23.168800 14.199000 14.619300 # 1 
165 1 1 0.000000 5.416600 16.483299 7.339300 # 1 
166 1 1 0.000000 16.456499 14.446800 22.145100 # 1 
167 1 1 0.000000 18.252001 24.372200 14.115900 # 1 
168 1 1 0.000000 11.273000 11.586900 11.774800 # 1 
169 1 1 0.000000 10.645200 27.643900 10.256700 # 1 
170 1 1 0.000000 19.508900 17.723301 17.844801 # 1 
171 1 1 0.000000 22.601299 10.249700 24.089899 # 1 
172 1 1 0.000000 27.860201 17.868799 21.313601 # 1 
173 1 1 0.000000 26.498600 16.497999 26.887899 # 1 
174 1 1 0.000000 11.640000 18.409000 17.411501 # 1 
175 1 1 0.000000 3.338600 19.517799 7.217400 # 1 
176 1 1 0.000000 28.340099 12.355600 15.735200 # 1 
177 1 1 0.000000 25.275499 18.095800 2.387200 # 1 
178 1 1 0.000000 21.481300 19.580200 9.931900 # 1 
179 1 1 0.000000 26.516399 16.086300 18.044001 # 1 
180 1 1 0.000000 26.654200 22.326200 16.687099 # 1 
181 1 1 0.000000 7.551700 24.723101 11.653700 # 1 
182 1 1 0.000000 22.106501 8.473400 14.919000 # 1 
183 1 1 0.000000 0.408400 17.943001 19.156401 # 1 
184 1 1 0.000000 26.993900 17.589399 15.095500 # 1 
185 1 1 0.000000 9.987600 18.006100 10.395200 # 1 
186 1 1 0.000000 12.935200 17.544201 14.036900 # 1 
187 1 1 0.000000 23.600700 20.038000 5.974400 # 1 
188 1 1 0.000000 1.495100 18.550699 1.192400 # 1 
189 1 1 0.000000 19.259199 13.876700 15.273200 # 1 
190 1 1 0.000000 10.803900 8.203900 17.984800 # 1 
191 1 1 0.000000 10.321000 7.629900 9.102200 # 1 
192 1 1 0.000000 18.848200 1.612800 11.906000 # 1 
193 1 1 0.000000 4.981600 17.825300 7.539100 # 1 
194 1 1 0.000000 22.595400 22.824699 17.955099 # 1 
195 1 1 0.000000 4.018400 9.069900 8.138800 # 1 
196 1 1 0.000000 16.349100 23.613100 12.771500 # 1 
197 1 1 0.000000 21.846901 17.804199 8.186100 # 1 
198 1 1 0.000000 1.015900 16.079000 18.013201 # 1 
199 1 1 0.000000 7.279300 14.216100 11.188400 # 1 
200 1 1 0.000000 21.930700 19.867001 14.756500 # 1 
201 1 1 0.000000 7.783500 23.438700 12.295900 # 1 
202 1 1 0.000000 0.628700 15.332700 10.297100 # 1 
203 1 1 0.000000 26.619900 15.357400 27.683300 # 1 
204 1 1 0.000000 26.526400 27.883499 12.076300 # 1 
205 1 1 0.000000 18.471800 15.425800 18.796499 # 1 
206 1 1 0.000000 26.163700 16.370399 15.291700 # 1 
207 1 1 0.000000 25.618900 12.635000 14.593200 # 1 
208 1 1 0.000000 2.506400 20.296101 6.395700 # 1 
209 1 1 0.000000 24.798300 3.153200 18.193100 # 1 
210 1 1 0.000000 10.371600 14.054400 15.466100 # 1 
211 1 1 0.000000 28.472099 23.511101 9.327200 # 1 
212 1 1 0.000000 4.633400 15.320300 23.978800 # 1 
213 1 1 0.000000 22.093800 15.687700 19.563000 # 1 
214 1 1 0.000000 18.414900 11.503900 12.958000 # 1 
215 1 1 0.000000 9.973200 11.580400 21.061100 # 1 
216 1 1 0.000000 26.414600 16.276800 25.481800 # 1 
217 1 1 0.000000 25.991100 8.150000 5.717500 # 1 
218 1 1 0.000000 1.780700 19.866301 10.417300 # 1 
219 1 1 0.000000 1.386000 21.073799 6.824500 # 1 
220 1 1 0.000000 15.331500 17.643900 10.632200 # 1 
221 1 1 0.000000 3.673500 14.080700 1.737700 # 1 
222 1 1 0.000000 21.391800 13.287800 3.580900 # 1 
223 1 1 0.000000 20.362900 17.496099 10.147800 # 1 
224 1 1 0.000000 6.750100 22.779600 12.989600 # 1 
225 1 1 0.000000 27.931200 7.787000 16.945200 # 1 
226 1 1 0.000000 12.759800 11.559700 8.810200 # 1 
227 1 1 0.000000 25.811701 15.962300 3.153800 # 1 
228 1 1 0.000000 22.774700 17.448099 28.245800 # 1 
229 1 1 0.000000 26.871201 15.474700 0.261600 # 1 
230 1 1 0.000000 4.818500 16.655300 3.762600 # 1 
231 1 1 0.000000 28.126801 22.258900 16.693300 # 1 
232 1 1 0.000000 6.747100 14.938300 22.922899 # 1 
233 1 1 0.000000 20.649500 5.719100 15.280300 # 1 
234 1 1 0.000000 9.838900 25.268499 12.086300 # 1 
235 1 1 0.000000 22.998501 21.619101 13.823200 # 1 
236 1 1 0.000000 5.266200 28.457001 10.653200 # 1 
237 1 1 0.000000 6.690600 18.537701 21.030899 # 1 
238 1 1 0.000000 10.323000 18.491501 17.899700 # 1 
239 1 1 0.000000 26.050400 9.677800 28.455601 # 1 
240 1 1 0.000000 18.674601 14.123700 22.517300 # 1 
241 1 1 0.000000 11.590000 28.411699 9.529800 # 1 
242 1 1 0.000000 27.444901 9.630200 13.816000 # 1 
243 1 1 0.000000 2.845300 28.600901 10.975500 # 1 
244 1 1 0.000000 24.588699 12.005800 7.917400 # 1 
245 1 1 0.000000 10.827600 17.798401 15.176100 # 1 
246 1 1 0.000000 3.341500 18.559999 3.156200 # 1 
247 1 1 0.000000 25.217899 6.690400 13.940400 # 1 
248 1 1 0.000000 22.477501 12.012500 11.818300 # 1 
249 1 1 0.000000 28.399599 10.534500 3.023800 # 1 
250 1 1 0.000000 20.886299 13.747300 23.214500 # 1 
251 1 1 0.000000 13.301600 18.990900 11.004400 # 1 
252 1 1 0.000000 5.665600 7.592500 13.877700 # 1 
253 1 1 0.000000 1.928100 24.364100 9.661900 # 1 
254 1 1 0.000000 8.718200 11.587600 21.725901 # 1 
255 1 1 0.000000 27.169399 18.463800 22.462799 # 1 
256 1 1 0.000000 15.715800 22.335400 12.643500 # 1 
257 1 1 0.000000 4.501500 8.417000 11.863700 # 1 
258 1 1 0.000000 19.874800 9.403600 14.799700 # 1 
259 1 1 0.000000 7.270800 21.615499 13.683600 # 1 
260 1 1 0.000000 24.542000 21.158600 24.318899 # 1 
261 1 1 0.000000 16.137501 17.001200 9.554400 # 1 
262 1 1 0.000000 4.594300 22.540701 15.195600 # 1 
263 1 1 0.000000 27.255100 0.257100 12.249400 # 1 
264 1 1 0.000000 24.441299 19.109100 0.358700 # 1 
265 1 1 0.000000 21.306400 7.723100 20.116600 # 1 
266 1 1 0.000000 3.544400 6.753900 13.026300 # 1 
267 1 1 0.000000 24.076401 5.161600 19.542500 # 1 
268 1 1 0.000000 19.948799 15.409100 4.816500 # 1 
269 1 1 0.000000 5.228600 17.928200 14.809700 # 1 
270 1 1 0.000000 10.829600 16.238501 15.647400 # 1 
271 1 1 0.000000 27.231501 18.667299 25.323000 # 1 
272 1 1 0.000000 14.550600 13.228600 9.032800 # 1 
273 1 1 0.000000 2.928200 12.454600 12.419500 # 1 
274 1 1 0.000000 1.957700 14.448100 25.407301 # 1 
275 1 1 0.000000 7.359000 15.079800 15.181100 # 1 
276 1 1 0.000000 28.366100 10.791400 22.715099 # 1 
277 1 1 0.000000 23.885000 10.705300 27.427401 # 1 
278 1 1 0.000000 26.610800 18.740200 17.200500 # 1 
279 1 1 0.000000 17.569500 23.383699 13.408100 # 1 
280 1 1 0.000000 27.711201 19.721901 24.475500 # 1 
281 1 1 0.000000 14.746600 12.367000 21.218700 # 1 
282 1 1 0.000000 16.581600 8.692100 10.320100 # 1 
283 1 1 0.000000 25.836300 0.097900 19.828600 # 1 
284 1 1 0.000000 1.940300 17.339600 9.691500 # 1 
285 1 1 0.000000 28.558901 13.878700 13.614200 # 1 
286 1 1 0.000000 18.698900 9.958700 9.229700 # 1 
287 1 1 0.000000 5.720900 11.928200 11.943800 # 1 
288 1 1 0.000000 5.470200 9.504600 11.853300 # 1 
289 1 1 0.000000 8.816100 0.245900 9.899900 # 1 
290 1 1 0.000000 12.246300 1.845700 9.294200 # 1 
291 1 1 0.000000 3.969100 10.701300 25.769300 # 1 
292 1 1 0.000000 27.612801 15.133100 17.999300 # 1 
293 1 1 0.000000 25.736099 20.646200 27.736500 # 1 
294 1 1 0.000000 28.339001 21.670500 3.773600 # 1 
295 1 1 0.000000 23.786100 19.810699 22.379999 # 1 
296 1 1 0.000000 12.966500 5.263300 10.417200 # 1 
297 1 1 0.000000 16.700701 3.320300 11.088500 # 1 
298 1 1 0.000000 23.100300 28.624300 15.406600 # 1 
299 1 1 0.000000 17.302000 12.553200 17.579901 # 1 
300 1 1 0.000000 25.969000 16.131300 22.714701 # 1 
301 1 1 0.000000 17.688000 10.486400 16.479000 # 1 
302 1 1 0.000000 18.364100 9.069900 12.025000 # 1 
303 1 1 0.000000 23.943001 18.721300 15.859500 # 1 
304 1 1 0.000000 1.918800 18.195499 25.011400 # 1 
305 1 1 0.000000 11.181000 9.106900 12.062100 # 1 
306 1 1 0.000000 0.677000 3.760900 12.168500 # 1 
307 1 1 0.000000 20.402201 19.867399 16.531900 # 1 
308 1 1 0.000000 6.114000 7.559000 18.666599 # 1 
309 1 1 0.000000 14.321200 13.748300 21.202999 # 1 
310 1 1 0.000000 10.738800 12.791200 21.111300 # 1 
311 1 1 0.000000 8.169300 12.870100 7.806100 # 1 
312 1 1 0.000000 26.187401 20.702900 3.507700 # 1 
313 1 1 0.000000 26.198500 14.798500 23.490101 # 1 
314 1 1 0.000000 23.558500 1.154800 15.570300 # 1 
315 1 1 0.000000 2.983800 5.171500 18.990000 # 1 
316 1 1 0.000000 24.922501 25.264999 14.137700 # 1 
317 1 1 0.000000 5.732000 15.560400 8.417000 # 1 
318 1 1 0.000000 7.425300 8.615400 20.183399 # 1 
319 1 1 0.000000 25.885900 9.582200 3.789400 # 1 
320 1 1 0.000000 28.379400 10.661700 1.589500 # 1 
321 1 1 0.000000 20.519400 22.318600 16.060801 # 1 
322 1 1 0.000000 25.655300 19.877199 17.212999 # 1 
323 1 1 0.000000 4.132300 25.264700 10.183800 # 1 
324 1 1 0.000000 1.757100 9.225500 18.590401 # 1 
325 1 1 0.000000 27.101500 10.552500 1.474000 # 1 
326 1 1 0.000000 25.997700 2.805500 20.340700 # 1 
327 1 1 0.000000 17.447599 12.493900 12.660900 # 1 
328 1 1 0.000000 9.545700 2.707500 9.853100 # 1 
329 1 1 0.000000 2.715900 15.538200 27.324600 # 1 
330 1 1 0.000000 0.701100 12.951200 23.829500 # 1 
331 1 1 0.000000 4.647700 21.299999 19.417101 # 1 
332 1 1 0.000000 14.305100 8.011600 17.142099 # 1 
333 1 1 0.000000 15.641600 24.805700 12.728500 # 1 
334 1 1 0.000000 17.782700 14.799400 8.191000 # 1 
335 1 1 0.000000 21.163401 14.333800 2.712100 # 1 
336 1 1 0.000000 9.722400 9.322600 20.021601 # 1 
337 1 1 0.000000 2.003900 8.104300 16.437401 # 1 
338 1 1 0.000000 21.830799 9.942300 22.969999 # 1 
339 1 1 0.000000 15.360000 5.411300 11.032600 # 1 
340 1 1 0.000000 13.499400 21.065901 12.359300 # 1 
341 1 1 0.000000 19.622601 13.536800 6.818100 # 1 
342 1 1 0.000000 12.927600 28.004999 9.816800 # 1 
343 1 1 0.000000 1.759500 5.375100 9.709900 # 1 
344 1 1 0.000000 28.517000 8.473900 19.137300 # 1 
345 1 1 0.000000 26.924400 26.986099 11.110700 # 1 
346 1 1 0.000000 26.693199 17.461399 24.675400 # 1 
347 1 1 0.000000 6.737800 10.162600 22.227200 # 1 
348 1 1 0.000000 16.642700 21.351101 12.935200 # 1 
349 1 1 0.000000 2.506500 21.695200 12.422600 # 1 
350 1 1 0.000000 21.595900 3.835700 13.873400 # 1 
351 1 1 0.000000 25.755501 11.198400 7.721200 # 1 
352 1 1 0.000000 22.815399 18.988400 20.409599 # 1 
353 1 1 0.000000 0.763900 7.523300 6.945000 # 1 
354 1 1 0.000000 21.656700 26.487900 15.128700 # 1 
355 1 1 0.000000 12.249000 10.216800 8.781900 # 1 
356 1 1 0.000000 3.038100 15.427200 28.676201 # 1 
357 1 1 0.000000 28.726900 25.874701 9.897000 # 1 
358 1 1 0.000000 27.447800 27.014900 17.088301 # 1 
359 1 1 0.000000 2.105300 12.443100 2.684300 # 1 
360 1 1 0.000000 10.111200 18.122900 19.253099 # 1 
361 1 1 0.000000 24.962200 9.259300 18.743299 # 1 
362 1 1 0.000000 27.719400 15.016400 14.060100 # 1 
363 1 1 0.000000 26.691500 15.007500 15.057300 # 1 
364 1 1 0.000000 1.399600 23.701401 17.014200 # 1 
365 1 1 0.000000 3.832400 9.602600 24.891399 # 1 
366 1 1 0.000000 20.598700 19.539900 18.841200 # 1 
367 1 1 0.000000 11.111600 0.955900 9.398800 # 1 
368 1 1 0.000000 1.681000 24.809601 19.428699 # 1 
369 1 1 0.000000 0.613900 16.574800 19.242701 # 1 
370 1 1 0.000000 20.843000 12.542900 13.644600 # 1 
371 1 1 0.000000 19.612900 4.867900 13.326500 # 1 
372 1 1 0.000000 24.574800 11.383100 12.623800 # 1 
373 1 1 0.000000 4.558200 8.993500 22.580601 # 1 
374 1 1 0.000000 0.234600 11.498100 3.774800 # 1 
375 1 1 0.000000 27.688999 10.487600 8.428000 # 1 
376 1 1 0.000000 9.256300 5.541300 9.672800 # 1 
377 1 1 0.000000 25.179199 22.049601 23.407000 # 1 
378 1 1 0.000000 2.898000 22.453600 13.614500 # 1 
379 1 1 0.000000 28.587099 19.729000 14.097900 # 1 
380 1 1 0.000000 3.290800 19.088301 8.579700 # 1 
381 1 1 0.000000 26.786600 4.525200 21.888599 # 1 
382 1 1 0.000000 13.789800 17.137501 16.315701 # 1 
383 1 1 0.000000 2.894100 12.859800 28.530701 # 1 
384 1 1 0.000000 25.828300 5.928900 12.934300 # 1 
385 1 1 0.000000 0.168000 3.605900 20.917299 # 1 
386 1 1 0.000000 24.241400 11.291000 10.187600 # 1 
387 1 1 0.000000 11.895400 10.338600 12.030700 # 1 
388 1 1 0.000000 6.629100 21.105200 14.799800 # 1 
389 1 1 0.000000 4.276400 1.831600 11.319400 # 1 
390 1 1 0.000000 20.298700 8.457900 10.499000 # 1 
391 1 1 0.000000 1.567800 17.764601 27.707100 # 1 
392 1 1 0.000000 22.114799 1.104900 13.723500 # 1 
393 1 1 0.000000 10.778500 19.870800 11.496400 # 1 
394 1 1 0.000000 3.422000 8.148100 22.288099 # 1 
395 1 1 0.000000 0.628300 1.447200 12.104200 # 1 
396 1 1 0.000000 4.231800 5.483500 9.966800 # 1 
397 1 1 0.000000 2.127200 13.774100 16.875900 # 1 
398 1 1 0.000000 2.107400 26.680599 10.062300 # 1 
399 1 1 0.000000 28.794800 26.064199 20.884001 # 1 
400 1 1 0.000000 0.700100 5.759900 14.090700 # 1 
401 1 1 0.000000 19.960800 19.110800 17.643700 # 1 
402 1 1 0.000000 21.847200 10.058200 6.301100 # 1 
403 1 1 0.000000 25.782301 4.004400 21.017099 # 1 
404 1 1 0.000000 0.153000 17.260500 11.471300 # 1 
405 1 1 0.000000 1.681400 9.126200 27.109100 # 1 
406 1 1 0.000000 11.878000 12.637600 8.408100 # 1 
407 1 1 0.000000 27.128300 11.425300 23.216700 # 1 
408 1 1 0.000000 13.156100 3.899900 10.083300 # 1 
409 1 1 0.000000 27.393900 8.235800 5.671200 # 1 
410 1 1 0.000000 0.328800 28.093800 10.969200 # 1 
411 1 1 0.000000 2.704000 8.735200 24.714300 # 1 
412 1 1 0.000000 20.335300 12.368200 6.826700 # 1 
413 1 1 0.000000 20.842501 11.826300 18.152000 # 1 
414 1 1 0.000000 4.261600 6.563700 9.057600 # 1 
415 1 1 0.000000 27.062901 5.150100 13.042200 # 1 
416 1 1 0.000000 26.834000 21.601801 5.751900 # 1 
417 1 1 0.000000 8.579500 15.729000 14.865800 # 1 
418 1 1 0.000000 23.144400 18.686899 25.773300 # 1 
419 1 1 0.000000 14.131700 15.598200 9.314000 # 1 
420 1 1 0.000000 28.489000 7.190400 15.825600 # 1 
421 1 1 0.000000 24.235800 18.240200 1.509100 # 1 
422 1 1 0.000000 22.209999 8.987600 22.045200 # 1 
423 1 1 0.000000 18.951099 19.686001 12.836600 # 1 
424 1 1 0.000000 0.031200 10.207000 6.029600 # 1 
425 1 1 0.000000 25.999399 10.671100 20.453400 # 1 
426 1 1 0.000000 11.897300 10.435800 19.859699 # 1 
427 1 1 0.000000 5.330200 15.955900 5.977700 # 1 
428 1 1 0.000000 20.748301 21.183701 13.112900 # 1 
429 1 1 0.000000 11.674900 5.835100 10.064400 # 1 
430 1 1 0.000000 28.268299 22.195499 24.753300 # 1 
431 1 1 0.000000 7.082300 19.517200 16.623400 # 1 
432 1 1 0.000000 1.978900 22.134199 21.996401 # 1 
433 1 1 0.000000 16.487200 14.634200 8.811200 # 1 
434 1 1 0.000000 22.844299 25.221701 17.072599 # 1 
435 1 1 0.000000 24.553900 12.302700 13.702900 # 1 
436 1 1 0.000000 19.329300 28.274200 12.815300 # 1 
437 1 1 0.000000 27.682301 20.986700 22.221300 # 1 
438 1 1 0.000000 19.611601 26.262600 14.182800 # 1 
439 1 1 0.000000 0.242500 19.295401 1.144300 # 1 
440 1 1 0.000000 1.207600 19.611401 11.699300 # 1 
441 1 1 0.000000 28.438200 5.698600 7.880500 # 1 
442 1 1 0.000000 14.990300 15.310400 17.712500 # 1 
443 1 1 0.000000 16.790100 10.975700 21.209600 # 1 
444 1 1 0.000000 5.679800 10.554800 16.074900 # 1 
445 1 1 0.000000 16.460199 19.976400 12.788700 # 1 
446 1 1 0.000000 27.802200 14.540400 2.354200 # 1 
447 1 1 0.000000 26.405199 0.457200 14.387400 # 1 
448 1 1 0.000000 28.777599 5.672800 22.332899 # 1 
449 1 1 0.000000 18.528200 16.996700 13.339300 # 1 
450 1 1 0.000000 1.211600 7.333900 15.524100 # 1 
451 1 1 0.000000 26.293400 21.932899 25.964100 # 1 
452 1 1 0.000000 19.480700 16.607300 16.943199 # 1 
453 1 1 0.000000 24.163200 8.376600 23.400499 # 1 
454 1 1 0.000000 22.503500 6.960500 20.365000 # 1 
455 1 1 0.000000 1.687900 10.737500 14.262300 # 1 
456 1 1 0.000000 0.588100 1.160700 17.006100 # 1 
457 1 1 0.000000 12.901200 5.832200 14.116700 # 1 
458 1 1 0.000000 9.569700 6.875400 12.644300 # 1 
459 1 1 0.000000 4.371900 18.691200 6.630900 # 1 
460 1 1 0.000000 6.099600 20.080799 17.392099 # 1 
461 1 1 0.000000 0.834300 6.379000 7.794700 # 1 
462 1 1 0.000000 21.965300 14.746000 28.022600 # 1 
463 1 1 0.000000 12.636100 11.523500 20.341999 # 1 
464 1 1 0.000000 27.660999 18.994900 0.760900 # 1 
465 1 1 0.000000 21.323000 9.925200 16.792000 # 1 
466 1 1 0.000000 23.344801 19.818701 15.062100 # 1 
467 1 1 0.000000 28.631001 20.663900 18.969700 # 1 
468 1 1 0.000000 10.533200 5.023100 9.943800 # 1 
469 1 1 0.000000 23.825100 12.583000 19.516001 # 1 
470 1 1 0.000000 13.806500 17.440399 17.728300 # 1 
471 1 1 0.000000 26.188601 8.673400 18.417801 # 1 
472 1 1 0.000000 0.465600 20.428200 1.973300 # 1 
473 1 1 0.000000 28.493000 27.373199 18.076401 # 1 
474 1 1 0.000000 19.372801 16.142099 5.730000 # 1 
475 1 1 0.000000 12.316800 22.946600 13.116900 # 1 
476 1 1 0.000000 4.039300 12.514500 6.150800 # 1 
477 1 1 0.000000 25.590300 25.736601 15.298200 # 1 
478 1 1 0.000000 23.466801 8.075300 14.666700 # 1 
479 1 1 0.000000 10.787400 4.623400 13.252400 # 1 
480 1 1 0.000000 2.164700 15.712200 24.603701 # 1 
481 1 1 0.000000 28.789400 12.958400 26.224001 # 1 
482 1 1 0.000000 24.089001 22.341200 9.657200 # 1 
483 1 1 0.000000 27.318800 9.819300 3.819900 # 1 
484 1 1 0.000000 20.124100 9.722300 21.481100 # 1 
485 1 1 0.000000 23.568300 14.102100 7.114200 # 1 
486 1 1 0.000000 23.721300 17.359301 15.384500 # 1 
487 1 1 0.000000 24.760900 10.708900 1.761200 # 1 
488 1 1 0.000000 18.156601 10.813200 21.654100 # 1 
489 1 1 0.000000 6.720500 1.497200 10.589400 # 1 
490 1 1 0.000000 27.933599 24.770800 9.696900 # 1 
491 1 1 0.000000 21.424400 11.949500 10.844300 # 1 
492 1 1 0.000000 19.780600 8.731300 11.814700 # 1 
493 1 1 0.000000 7.569500 14.051600 8.275300 # 1 
494 1 1 0.000000 27.037500 0.627200 20.297300 # 1 
495 1 1 0.000000 17.226101 28.568800 11.580600 # 1 
496 1 1 0.000000 19.073500 15.338500 17.428101 # 1 
497 1 1 0.000000 19.552099 17.484100 19.312000 # 1 
498 1 1 0.000000 8.475800 9.363900 20.719200 # 1 
499 1 1 0.000000 8.851700 10.660500 7.729900 # 1 
500 1 1 0.000000 26.905001 22.569500 24.876699 # 1 
501 1 1 0.000000 23.531401 23.257000 18.956200 # 1 
502 1 1 0.000000 28.370399 0.801300 16.227301 # 1 
503 1 1 0.000000 10.955300 16.382999 13.012000 # 1 
504 1 1 0.000000 9.780700 12.862300 15.075000 # 1 
505 1 1 0.000000 14.877800 8.497400 18.379101 # 1 
506 1 1 0.000000 27.159599 25.615900 17.180799 # 1 
507 1 1 0.000000 3.514300 26.550501 10.125000 # 1 
508 1 1 0.000000 24.334299 0.516400 17.892700 # 1 
509 1 1 0.000000 24.718500 17.840799 18.088499 # 1 
510 1 1 0.000000 2.178000 18.797400 9.514600 # 1 
511 1 1 0.000000 14.030800 11.379000 20.545601 # 1 
512 1 1 0.000000 25.688101 10.596600 12.535100 # 1 
513 1 1 0.000000 6.345200 13.698900 23.557501 # 1 
514 1 1 0.000000 15.866200 1.351400 9.836700 # 1 
515 1 1 0.000000 26.168900 13.596800 22.836201 # 1 
516 1 1 0.000000 11.784500 5.586500 13.106200 # 1 
517 1 1 0.000000 6.435200 10.974600 8.292100 # 1 
518 1 1 0.000000 27.676001 7.337400 23.890800 # 1 
519 1 1 0.000000 22.570000 21.678600 11.494400 # 1 
520 1 1 0.000000 13.289400 12.825200 12.450900 # 1 
521 1 1 0.000000 6.603900 11.562700 15.975400 # 1 
522 1 1 0.000000 7.651600 8.735500 8.482300 # 1 
523 1 1 0.000000 28.176201 18.440901 20.047300 # 1 
524 1 1 0.000000 18.324100 9.029000 19.837799 # 1 
525 1 1 0.000000 28.766399 10.128400 9.235900 # 1 
526 1 1 0.000000 15.201100 8.412900 9.969500 # 1 
527 1 1 0.000000 0.766600 25.877001 19.708599 # 1 
528 1 1 0.000000 0.347900 10.226800 0.410700 # 1 
529 1 1 0.000000 28.741301 28.487000 18.978600 # 1 
530 1 1 0.000000 21.850000 15.337700 8.422600 # 1 
531 1 1 0.000000 8.508400 15.039300 8.678500 # 1 
532 1 1 0.000000 8.139700 12.726900 22.298300 # 1 
533 1 1 0.000000 14.971900 7.357200 14.675100 # 1 
534 1 1 0.000000 7.081200 26.667101 10.384100 # 1 
535 1 1 0.000000 3.885700 21.986300 20.471701 # 1 
536 1 1 0.000000 1.154600 6.429400 22.155500 # 1 
537 1 1 0.000000 1.596400 12.772400 12.752900 # 1 
538 1 1 0.000000 23.799101 20.065901 23.768299 # 1 
539 1 1 0.000000 0.723500 21.491301 4.578200 # 1 
540 1 1 0.000000 23.324499 18.884300 24.413000 # 1 
541 1 1 0.000000 27.558701 6.649200 14.961300 # 1 
542 1 1 0.000000 26.691299 5.500800 9.520900 # 1 
543 1 1 0.000000 2.076700 16.732599 26.874701 # 1 
544 1 1 0.000000 5.348400 8.556500 8.425800 # 1 
545 1 1 0.000000 26.304701 25.909100 21.985600 # 1 
546 1 1 0.000000 0.813200 9.247000 19.668600 # 1 
547 1 1 0.000000 21.953199 7.791800 12.041600 # 1 
548 1 1 0.000000 4.626600 13.108600 25.306101 # 1 
549 1 1 0.000000 24.932600 21.852301 22.025299 # 1 
550 1 1 0.000000 28.103901 23.844000 18.538200 # 1 
551 1 1 0.000000 9.624500 21.712601 12.760300 # 1 
552 1 1 0.000000 23.310900 8.144100 22.307199 # 1 
553 1 1 0.000000 16.932699 9.156700 19.529800 # 1 
554 1 1 0.000000 1.803600 8.571700 6.951800 # 1 
555 1 1 0.000000 20.364401 7.662800 19.048300 # 1 
556 1 1 0.000000 26.512300 5.549300 22.768600 # 1 
557 1 1 0.000000 22.368200 15.224900 22.011101 # 1 
558 1 1 0.000000 1.919800 1.855000 11.785400 # 1 
559 1 1 0.000000 9.310500 27.746500 10.159900 # 1 
560 1 1 0.000000 19.106800 14.027700 16.765200 # 1 
561 1 1 0.000000 10.348700 16.461000 20.883600 # 1 
562 1 1 0.000000 16.253201 26.038200 12.451200 # 1 
563 1 1 0.000000 28.510599 13.413500 19.574900 # 1 
564 1 1 0.000000 15.442900 11.320300 16.941700 # 1 
565 1 1 0.000000 28.315201 12.652800 3.924700 # 1 
566 1 1 0.000000 14.542000 16.430401 18.451200 # 1 
567 1 1 0.000000 1.984100 22.586700 14.720800 # 1 
568 1 1 0.000000 27.793800 17.489599 13.893300 # 1 
569 1 1 0.000000 7.713800 11.485600 7.880900 # 1 
570 1 1 0.000000 2.232900 18.992100 2.306300 # 1 
571 1 1 0.000000 24.398001 24.167999 11.641500 # 1 
572 1 1 0.000000 5.475300 7.228000 8.872000 # 1 
573 1 1 0.000000 14.999700 12.629700 16.994600 # 1 
574 1 1 0.000000 3.633100 12.243800 4.892100 # 1 
575 1 1 0.000000 21.264500 18.273500 9.394700 # 1 
576 1 1 0.000000 21.758101 14.280000 1.445600 # 1 
577 1 1 0.000000 21.796900 21.044901 14.053500 # 1 
578 1 1 0.000000 21.741100 16.389999 3.319900 # 1 
579 1 1 0.000000 26.750401 23.613001 22.580799 # 1 
580 1 1 0.000000 1.722200 27.941500 10.559500 # 1 
581 1 1 0.000000 24.323900 9.802400 25.391800 # 1 
582 1 1 0.000000 27.419201 9.540100 11.277700 # 1 