LAMMPS data file for CNT with a pore size of 2.1 nm
 3938 atoms
 5784 bonds
 11360 angles
 22475 dihedrals
 0 impropers
 1 atom types
 1 bond types
 1 angle types
 1 dihedral types
 0 improper types
 -0.640800 58.359200  xlo xhi
 -0.860899 58.139101  ylo yhi
 -0.030174 107.339829  zlo zhi

 Masses

 1 12.010000 # 1

 Atoms # full

1 1 1 0.000000 43.007401 31.481701 13.641700 # 1 
2 1 1 0.000000 42.764301 32.807499 13.214600 # 1 
3 1 1 0.000000 42.492500 33.850300 14.195200 # 1 
4 1 1 0.000000 41.993301 35.145500 13.834600 # 1 
5 1 1 0.000000 41.723202 36.146198 14.824100 # 1 
6 1 1 0.000000 41.023399 37.329700 14.416200 # 1 
7 1 1 0.000000 43.075100 30.762199 11.296700 # 1 
8 1 1 0.000000 42.862801 32.109200 10.864300 # 1 
9 1 1 0.000000 42.567799 33.118000 11.899300 # 1 
10 1 1 0.000000 42.194401 34.429298 11.472500 # 1 
11 1 1 0.000000 41.722599 35.280102 12.477900 # 1 
12 1 1 0.000000 40.763401 36.367599 12.065300 # 1 
13 1 1 0.000000 40.792801 37.528500 13.041900 # 1 
14 1 1 0.000000 40.131699 38.709801 12.635600 # 1 
15 1 1 0.000000 39.516800 39.483101 13.655800 # 1 
16 1 1 0.000000 38.629101 40.560799 13.277700 # 1 
17 1 1 0.000000 37.786900 41.199402 14.232300 # 1 
18 1 1 0.000000 36.672298 41.992100 13.803200 # 1 
19 1 1 0.000000 35.801998 42.498199 14.834000 # 1 
20 1 1 0.000000 34.530602 43.016602 14.452200 # 1 
21 1 1 0.000000 43.239700 30.095900 8.991100 # 1 
22 1 1 0.000000 43.107101 31.429501 8.550090 # 1 
23 1 1 0.000000 42.755600 32.432499 9.503970 # 1 
24 1 1 0.000000 42.423901 33.768902 9.127120 # 1 
25 1 1 0.000000 41.940701 34.650902 10.120600 # 1 
26 1 1 0.000000 41.462299 35.968800 9.715410 # 1 
27 1 1 0.000000 40.939602 36.860199 10.687500 # 1 
28 1 1 0.000000 40.402401 38.122799 10.276100 # 1 
29 1 1 0.000000 39.939899 39.008598 11.252900 # 1 
30 1 1 0.000000 39.138699 40.160999 10.905500 # 1 
31 1 1 0.000000 38.380001 40.836498 11.877800 # 1 
32 1 1 0.000000 37.343300 41.716599 11.500600 # 1 
33 1 1 0.000000 36.436699 42.290001 12.436600 # 1 
34 1 1 0.000000 35.237499 42.911499 12.079200 # 1 
35 1 1 0.000000 34.253799 43.199699 13.066900 # 1 
36 1 1 0.000000 32.919899 43.503502 12.732100 # 1 
37 1 1 0.000000 31.917299 43.694000 13.679000 # 1 
38 1 1 0.000000 30.539400 43.958099 13.286200 # 1 
39 1 1 0.000000 29.543699 44.022301 14.279800 # 1 
40 1 1 0.000000 28.193899 44.006199 13.867700 # 1 
41 1 1 0.000000 27.184500 43.852501 14.844000 # 1 
42 1 1 0.000000 25.823799 43.529400 14.464400 # 1 
43 1 1 0.000000 42.950199 31.775400 7.195130 # 1 
44 1 1 0.000000 42.495998 33.099701 6.798280 # 1 
45 1 1 0.000000 42.146198 34.066700 7.783470 # 1 
46 1 1 0.000000 41.683201 35.302101 7.312690 # 1 
47 1 1 0.000000 41.424801 36.287998 8.325210 # 1 
48 1 1 0.000000 40.851398 37.577202 7.996710 # 1 
49 1 1 0.000000 40.312302 38.479401 8.928960 # 1 
50 1 1 0.000000 39.617699 39.673801 8.577860 # 1 
51 1 1 0.000000 38.859100 40.465698 9.535920 # 1 
52 1 1 0.000000 37.806400 41.343102 9.137880 # 1 
53 1 1 0.000000 36.965599 41.919201 10.134700 # 1 
54 1 1 0.000000 35.817600 42.665798 9.758530 # 1 
55 1 1 0.000000 34.849499 43.116501 10.732700 # 1 
56 1 1 0.000000 33.538799 43.529701 10.373000 # 1 
57 1 1 0.000000 32.487598 43.682701 11.361700 # 1 
58 1 1 0.000000 31.121599 43.897400 10.975500 # 1 
59 1 1 0.000000 30.142200 43.945400 11.955100 # 1 
60 1 1 0.000000 28.805500 43.914299 11.504600 # 1 
61 1 1 0.000000 27.778799 43.915798 12.515600 # 1 
62 1 1 0.000000 26.433399 43.646500 12.075600 # 1 
63 1 1 0.000000 25.488600 43.409302 13.076500 # 1 
64 1 1 0.000000 24.178200 43.012100 12.679300 # 1 
65 1 1 0.000000 23.230499 42.582298 13.640600 # 1 
66 1 1 0.000000 21.966999 42.010700 13.261400 # 1 
67 1 1 0.000000 21.211100 41.318600 14.209300 # 1 
68 1 1 0.000000 20.227400 40.375401 13.863200 # 1 
69 1 1 0.000000 19.511499 39.570900 14.819000 # 1 
70 1 1 0.000000 18.631701 38.510601 14.386000 # 1 
71 1 1 0.000000 43.044498 31.054600 4.864370 # 1 
72 1 1 0.000000 42.728802 32.418701 4.491600 # 1 
73 1 1 0.000000 42.444500 33.439098 5.417850 # 1 
74 1 1 0.000000 42.075901 34.738602 4.980700 # 1 
75 1 1 0.000000 41.549801 35.609501 5.943280 # 1 
76 1 1 0.000000 40.994999 36.861698 5.658030 # 1 
77 1 1 0.000000 40.685699 37.905399 6.616130 # 1 
78 1 1 0.000000 40.017200 39.082901 6.222320 # 1 
79 1 1 0.000000 39.404400 39.932098 7.220260 # 1 
80 1 1 0.000000 38.468601 40.969200 6.764010 # 1 
81 1 1 0.000000 37.555401 41.476898 7.757880 # 1 
82 1 1 0.000000 36.392601 42.234402 7.379740 # 1 
83 1 1 0.000000 35.443199 42.701302 8.363160 # 1 
84 1 1 0.000000 34.211498 43.343102 7.980140 # 1 
85 1 1 0.000000 33.209801 43.597301 8.972620 # 1 
86 1 1 0.000000 31.835600 43.921200 8.616200 # 1 
87 1 1 0.000000 30.764700 44.096001 9.593570 # 1 
88 1 1 0.000000 29.409300 44.189201 9.139140 # 1 
89 1 1 0.000000 28.420900 43.932701 10.156700 # 1 
90 1 1 0.000000 27.107401 43.777901 9.723870 # 1 
91 1 1 0.000000 26.139900 43.563702 10.717200 # 1 
92 1 1 0.000000 24.851500 43.202499 10.326000 # 1 
93 1 1 0.000000 23.812000 42.949299 11.285600 # 1 
94 1 1 0.000000 22.645901 42.199299 10.947000 # 1 
95 1 1 0.000000 21.778299 41.656101 11.924700 # 1 
96 1 1 0.000000 20.704700 40.760700 11.499300 # 1 
97 1 1 0.000000 19.914400 40.151798 12.491600 # 1 
98 1 1 0.000000 18.919901 39.199100 12.131000 # 1 
99 1 1 0.000000 18.307100 38.270699 13.038800 # 1 
100 1 1 0.000000 17.499201 37.214901 12.616800 # 1 
101 1 1 0.000000 16.940300 36.341301 13.637800 # 1 
102 1 1 0.000000 16.392799 35.068600 13.256900 # 1 
103 1 1 0.000000 16.165501 34.098999 14.281000 # 1 
104 1 1 0.000000 15.900700 32.744801 13.862100 # 1 
105 1 1 0.000000 15.830500 31.705299 14.856700 # 1 
106 1 1 0.000000 15.904600 30.363701 14.409100 # 1 
107 1 1 0.000000 43.068199 30.347200 2.458130 # 1 
108 1 1 0.000000 42.851200 31.721399 2.102640 # 1 
109 1 1 0.000000 42.630299 32.747700 3.134010 # 1 
110 1 1 0.000000 42.254200 34.056400 2.626030 # 1 
111 1 1 0.000000 41.938000 35.028900 3.601620 # 1 
112 1 1 0.000000 41.447800 36.293900 3.236200 # 1 
113 1 1 0.000000 40.881699 37.124199 4.280260 # 1 
114 1 1 0.000000 40.250301 38.294800 3.910430 # 1 
115 1 1 0.000000 39.737099 39.319801 4.832040 # 1 
116 1 1 0.000000 38.886299 40.387600 4.476900 # 1 
117 1 1 0.000000 38.162300 41.206699 5.421750 # 1 
118 1 1 0.000000 36.955399 41.859402 5.037100 # 1 
119 1 1 0.000000 36.048500 42.340000 5.989090 # 1 
120 1 1 0.000000 34.779999 42.938599 5.605100 # 1 
121 1 1 0.000000 33.845501 43.382801 6.602210 # 1 
122 1 1 0.000000 32.499699 43.657700 6.275240 # 1 
123 1 1 0.000000 31.473600 43.928001 7.233670 # 1 
124 1 1 0.000000 30.107401 43.961102 6.777690 # 1 
125 1 1 0.000000 29.072100 44.137100 7.749680 # 1 
126 1 1 0.000000 27.703800 43.984901 7.321750 # 1 
127 1 1 0.000000 26.752701 43.731899 8.354570 # 1 
128 1 1 0.000000 25.433500 43.427601 7.983940 # 1 
129 1 1 0.000000 24.505899 43.097900 8.947620 # 1 
130 1 1 0.000000 23.238100 42.505001 8.602330 # 1 
131 1 1 0.000000 22.365200 41.949299 9.580040 # 1 
132 1 1 0.000000 21.240900 41.197399 9.130110 # 1 
133 1 1 0.000000 20.534500 40.451199 10.082100 # 1 
134 1 1 0.000000 19.506500 39.567200 9.704950 # 1 
135 1 1 0.000000 18.764299 38.940601 10.758000 # 1 
136 1 1 0.000000 17.958500 37.840801 10.334600 # 1 
137 1 1 0.000000 17.340000 36.935799 11.246300 # 1 
138 1 1 0.000000 16.558901 35.777100 10.844300 # 1 
139 1 1 0.000000 16.299101 34.753899 11.857800 # 1 
140 1 1 0.000000 15.762200 33.459999 11.545900 # 1 
141 1 1 0.000000 15.819900 32.407200 12.474200 # 1 
142 1 1 0.000000 15.750600 31.039000 12.083300 # 1 
143 1 1 0.000000 15.924400 30.038799 13.041800 # 1 
144 1 1 0.000000 15.927800 28.646400 12.668900 # 1 
145 1 1 0.000000 16.057600 27.643299 13.681200 # 1 
146 1 1 0.000000 16.257200 26.305799 13.237000 # 1 
147 1 1 0.000000 16.505800 25.305700 14.234400 # 1 
148 1 1 0.000000 16.932100 24.002399 13.812200 # 1 
149 1 1 0.000000 17.228901 23.011200 14.805900 # 1 
150 1 1 0.000000 17.800100 21.779200 14.428600 # 1 
151 1 1 0.000000 43.147400 29.700500 0.043569 # 1 
152 1 1 0.000000 43.001499 31.052500 107.041000 # 1 
153 1 1 0.000000 42.885899 32.025600 0.691139 # 1 
154 1 1 0.000000 42.600201 33.375301 0.282819 # 1 
155 1 1 0.000000 42.158199 34.358700 1.232810 # 1 
156 1 1 0.000000 41.610100 35.598099 0.870659 # 1 
157 1 1 0.000000 41.087898 36.470100 1.883830 # 1 
158 1 1 0.000000 40.289299 37.571301 1.570850 # 1 
159 1 1 0.000000 39.773899 38.341900 2.631630 # 1 
160 1 1 0.000000 38.526798 39.017899 2.557690 # 1 
161 1 1 0.000000 38.288300 40.296902 3.175280 # 1 
162 1 1 0.000000 37.338001 41.237202 2.677100 # 1 
163 1 1 0.000000 36.593498 41.951000 3.648560 # 1 
164 1 1 0.000000 35.411900 42.662701 3.248360 # 1 
165 1 1 0.000000 34.430500 42.989300 4.256740 # 1 
166 1 1 0.000000 33.114700 43.392601 3.839270 # 1 
167 1 1 0.000000 32.199001 43.617401 4.854250 # 1 
168 1 1 0.000000 30.881201 43.873699 4.442340 # 1 
169 1 1 0.000000 29.813601 43.908798 5.409700 # 1 
170 1 1 0.000000 28.430000 43.919399 5.025430 # 1 
171 1 1 0.000000 27.371799 43.911598 5.974760 # 1 
172 1 1 0.000000 26.007401 43.730598 5.600650 # 1 
173 1 1 0.000000 25.080999 43.360100 6.580210 # 1 
174 1 1 0.000000 23.852200 42.799500 6.205710 # 1 
175 1 1 0.000000 22.910000 42.359798 7.209950 # 1 
176 1 1 0.000000 21.825100 41.647598 6.707940 # 1 
177 1 1 0.000000 20.962000 41.110298 7.735840 # 1 
178 1 1 0.000000 19.949400 40.144501 7.322770 # 1 
179 1 1 0.000000 19.268999 39.382099 8.288810 # 1 
180 1 1 0.000000 18.356300 38.310101 7.942870 # 1 
181 1 1 0.000000 17.772100 37.507999 8.982770 # 1 
182 1 1 0.000000 16.979500 36.425201 8.535070 # 1 
183 1 1 0.000000 16.293501 35.615101 9.423010 # 1 
184 1 1 0.000000 15.522400 34.452499 8.854040 # 1 
185 1 1 0.000000 15.038400 32.965302 10.315600 # 1 
186 1 1 0.000000 15.512400 31.681400 9.716240 # 1 
187 1 1 0.000000 15.602400 30.692801 10.686600 # 1 
188 1 1 0.000000 15.838600 29.368900 10.312000 # 1 
189 1 1 0.000000 16.033199 28.373400 11.267500 # 1 
190 1 1 0.000000 16.172001 27.017700 10.842900 # 1 
191 1 1 0.000000 16.398100 26.036301 11.871000 # 1 
192 1 1 0.000000 16.665501 24.725201 11.461500 # 1 
193 1 1 0.000000 16.952000 23.729900 12.442200 # 1 
194 1 1 0.000000 17.462099 22.459101 12.089300 # 1 
195 1 1 0.000000 17.928900 21.542400 13.045200 # 1 
196 1 1 0.000000 18.621000 20.355801 12.684100 # 1 
197 1 1 0.000000 19.340000 19.670799 13.654200 # 1 
198 1 1 0.000000 20.295099 18.647900 13.299800 # 1 
199 1 1 0.000000 21.029200 17.982000 14.281600 # 1 
200 1 1 0.000000 22.077999 17.093100 13.957200 # 1 
201 1 1 0.000000 23.032900 16.555700 14.878000 # 1 
202 1 1 0.000000 24.306299 16.149700 14.459000 # 1 
203 1 1 0.000000 40.098202 37.835300 0.184550 # 1 
204 1 1 0.000000 39.225300 38.785599 106.975998 # 1 
205 1 1 0.000000 38.134800 39.315800 0.399131 # 1 
206 1 1 0.000000 37.696899 40.665401 0.245877 # 1 
207 1 1 0.000000 37.089802 41.433201 1.276150 # 1 
208 1 1 0.000000 36.080601 42.392899 0.884568 # 1 
209 1 1 0.000000 35.117500 42.852299 1.882020 # 1 
210 1 1 0.000000 33.837799 43.232101 1.408500 # 1 
211 1 1 0.000000 32.838200 43.453999 2.443350 # 1 
212 1 1 0.000000 31.506300 43.663399 2.072800 # 1 
213 1 1 0.000000 30.502300 43.805801 3.094540 # 1 
214 1 1 0.000000 29.148701 43.843700 2.731840 # 1 
215 1 1 0.000000 28.123100 43.817200 3.659160 # 1 
216 1 1 0.000000 26.766399 43.752899 3.212770 # 1 
217 1 1 0.000000 25.737900 43.594601 4.164560 # 1 
218 1 1 0.000000 24.417700 43.189400 3.840880 # 1 
219 1 1 0.000000 23.546400 42.632900 4.861050 # 1 
220 1 1 0.000000 22.364901 42.026699 4.401280 # 1 
221 1 1 0.000000 21.445299 41.532200 5.348330 # 1 
222 1 1 0.000000 20.399300 40.630299 5.028570 # 1 
223 1 1 0.000000 19.684601 39.887798 6.003470 # 1 
224 1 1 0.000000 18.823099 38.860802 5.603130 # 1 
225 1 1 0.000000 18.186899 38.075802 6.540590 # 1 
226 1 1 0.000000 17.526501 36.883202 6.132060 # 1 
227 1 1 0.000000 16.911400 36.042400 7.106640 # 1 
228 1 1 0.000000 16.375299 34.825901 6.611080 # 1 
229 1 1 0.000000 15.830900 33.868900 7.566270 # 1 
230 1 1 0.000000 15.740500 32.437500 7.320000 # 1 
231 1 1 0.000000 15.625100 31.385401 8.274280 # 1 
232 1 1 0.000000 15.788100 30.004900 7.925880 # 1 
233 1 1 0.000000 15.900000 29.044500 8.937830 # 1 
234 1 1 0.000000 16.199800 27.682301 8.509710 # 1 
235 1 1 0.000000 16.302200 26.606701 9.467130 # 1 
236 1 1 0.000000 16.704599 25.288099 9.092660 # 1 
237 1 1 0.000000 16.800800 24.340300 10.114800 # 1 
238 1 1 0.000000 17.204700 23.029200 9.672700 # 1 
239 1 1 0.000000 17.709499 22.163700 10.717100 # 1 
240 1 1 0.000000 18.364901 20.976999 10.264500 # 1 
241 1 1 0.000000 18.859600 20.131100 11.302000 # 1 
242 1 1 0.000000 19.714500 19.022100 10.938000 # 1 
243 1 1 0.000000 20.429300 18.329399 11.934600 # 1 
244 1 1 0.000000 21.558599 17.547199 11.522400 # 1 
245 1 1 0.000000 22.394199 17.036100 12.553600 # 1 
246 1 1 0.000000 23.626400 16.405300 12.088100 # 1 
247 1 1 0.000000 24.627600 16.109900 13.063200 # 1 
248 1 1 0.000000 25.951401 15.699000 12.658200 # 1 
249 1 1 0.000000 26.953800 15.462000 13.663200 # 1 
250 1 1 0.000000 28.276400 15.377100 13.282400 # 1 
251 1 1 0.000000 29.270700 15.271100 14.275200 # 1 
252 1 1 0.000000 30.628401 15.407100 13.852800 # 1 
253 1 1 0.000000 31.595699 15.632900 14.815300 # 1 
254 1 1 0.000000 32.959999 15.868800 14.422900 # 1 
255 1 1 0.000000 33.551498 43.284000 0.015656 # 1 
256 1 1 0.000000 32.181702 43.567001 107.039001 # 1 
257 1 1 0.000000 31.189100 43.626202 0.692858 # 1 
258 1 1 0.000000 29.847900 43.596001 0.304342 # 1 
259 1 1 0.000000 28.834101 43.630798 1.325770 # 1 
260 1 1 0.000000 27.501400 43.632301 0.858518 # 1 
261 1 1 0.000000 26.493900 43.546299 1.849160 # 1 
262 1 1 0.000000 25.147400 43.272800 1.506570 # 1 
263 1 1 0.000000 24.143999 43.011501 2.466870 # 1 
264 1 1 0.000000 22.977200 42.319401 2.073790 # 1 
265 1 1 0.000000 22.056999 41.920799 3.022110 # 1 
266 1 1 0.000000 21.025299 41.061199 2.610370 # 1 
267 1 1 0.000000 20.266701 40.352402 3.636700 # 1 
268 1 1 0.000000 19.316500 39.402599 3.291100 # 1 
269 1 1 0.000000 18.588600 38.668301 4.207240 # 1 
270 1 1 0.000000 17.772301 37.583801 3.818160 # 1 
271 1 1 0.000000 17.378799 36.587200 4.766660 # 1 
272 1 1 0.000000 16.806999 35.363701 4.325880 # 1 
273 1 1 0.000000 16.473301 34.398602 5.290190 # 1 
274 1 1 0.000000 16.109301 33.059799 4.948420 # 1 
275 1 1 0.000000 15.830000 32.096199 5.904600 # 1 
276 1 1 0.000000 15.917800 30.704000 5.535290 # 1 
277 1 1 0.000000 15.946400 29.665600 6.559100 # 1 
278 1 1 0.000000 16.122900 28.300699 6.148960 # 1 
279 1 1 0.000000 16.358700 27.325500 7.138160 # 1 
280 1 1 0.000000 16.930099 26.022200 6.674700 # 1 
281 1 1 0.000000 16.805000 24.921101 7.724670 # 1 
282 1 1 0.000000 16.927601 23.613001 7.274420 # 1 
283 1 1 0.000000 17.284500 22.673401 8.297190 # 1 
284 1 1 0.000000 17.860701 21.440399 7.902240 # 1 
285 1 1 0.000000 18.498100 20.658800 8.918630 # 1 
286 1 1 0.000000 19.324200 19.564400 8.520840 # 1 
287 1 1 0.000000 19.955601 18.798500 9.547000 # 1 
288 1 1 0.000000 20.905300 17.774200 9.164740 # 1 
289 1 1 0.000000 21.697800 17.144100 10.145500 # 1 
290 1 1 0.000000 22.950399 16.582399 9.750120 # 1 
291 1 1 0.000000 23.924601 16.175900 10.702100 # 1 
292 1 1 0.000000 25.249201 15.763400 10.336800 # 1 
293 1 1 0.000000 26.261000 15.562200 11.269200 # 1 
294 1 1 0.000000 27.615400 15.336800 10.904800 # 1 
295 1 1 0.000000 28.628300 15.310800 11.889300 # 1 
296 1 1 0.000000 29.939400 15.458800 11.447300 # 1 
297 1 1 0.000000 30.950600 15.457700 12.466200 # 1 
298 1 1 0.000000 32.212601 15.957900 12.105000 # 1 
299 1 1 0.000000 33.236801 16.130501 13.083600 # 1 
300 1 1 0.000000 34.576500 16.550699 12.678100 # 1 
301 1 1 0.000000 35.562302 16.750799 13.608400 # 1 
302 1 1 0.000000 36.766998 17.331301 13.226500 # 1 
303 1 1 0.000000 37.730301 17.765200 14.183400 # 1 
304 1 1 0.000000 38.741199 18.687300 13.834600 # 1 
305 1 1 0.000000 39.440300 19.355200 14.851500 # 1 
306 1 1 0.000000 40.427399 20.280199 14.432900 # 1 
307 1 1 0.000000 24.861500 43.112801 0.094169 # 1 
308 1 1 0.000000 23.571600 42.726898 107.083000 # 1 
309 1 1 0.000000 22.618700 42.263000 0.715608 # 1 
310 1 1 0.000000 21.478201 41.561600 0.245146 # 1 
311 1 1 0.000000 20.697399 40.909801 1.202630 # 1 
312 1 1 0.000000 19.738899 39.994202 0.813245 # 1 
313 1 1 0.000000 19.341999 38.952599 1.830620 # 1 
314 1 1 0.000000 18.319000 37.945702 1.453200 # 1 
315 1 1 0.000000 17.669500 37.204498 2.438280 # 1 
316 1 1 0.000000 17.039000 36.025700 1.970240 # 1 
317 1 1 0.000000 16.639200 35.072498 2.930560 # 1 
318 1 1 0.000000 16.486000 33.709999 2.550910 # 1 
319 1 1 0.000000 16.225300 32.720600 3.565930 # 1 
320 1 1 0.000000 16.095301 31.359100 3.158650 # 1 
321 1 1 0.000000 16.112801 30.318001 4.155630 # 1 
322 1 1 0.000000 15.987000 28.927099 3.760100 # 1 
323 1 1 0.000000 16.131399 27.935200 4.773910 # 1 
324 1 1 0.000000 16.351801 26.646500 4.362870 # 1 
325 1 1 0.000000 16.565901 25.657900 5.310620 # 1 
326 1 1 0.000000 16.610800 24.305000 4.900160 # 1 
327 1 1 0.000000 16.917999 23.305201 5.883700 # 1 
328 1 1 0.000000 17.324301 21.967899 5.502750 # 1 
329 1 1 0.000000 17.905300 21.121201 6.508240 # 1 
330 1 1 0.000000 18.660801 19.965900 6.156140 # 1 
331 1 1 0.000000 19.431200 19.271799 7.153340 # 1 
332 1 1 0.000000 20.427799 18.330799 6.760450 # 1 
333 1 1 0.000000 21.209101 17.638500 7.775140 # 1 
334 1 1 0.000000 22.331699 16.864000 7.394410 # 1 
335 1 1 0.000000 23.298000 16.474899 8.352690 # 1 
336 1 1 0.000000 24.521799 15.837500 8.001050 # 1 
337 1 1 0.000000 25.542900 15.513100 8.987620 # 1 
338 1 1 0.000000 26.863199 15.222600 8.625240 # 1 
339 1 1 0.000000 27.926600 15.254500 9.528740 # 1 
340 1 1 0.000000 29.303400 15.380500 9.151260 # 1 
341 1 1 0.000000 30.316000 15.558200 10.129300 # 1 
342 1 1 0.000000 31.645500 15.770600 9.766410 # 1 
343 1 1 0.000000 32.563301 16.021700 10.746000 # 1 
344 1 1 0.000000 33.890301 16.387300 10.380200 # 1 
345 1 1 0.000000 34.881302 16.650400 11.319000 # 1 
346 1 1 0.000000 36.141998 17.163900 10.835600 # 1 
347 1 1 0.000000 37.072300 17.568701 11.867500 # 1 
348 1 1 0.000000 38.244099 18.258699 11.488000 # 1 
349 1 1 0.000000 38.965302 18.952000 12.468200 # 1 
350 1 1 0.000000 39.940498 19.893200 12.047100 # 1 
351 1 1 0.000000 40.555000 20.669201 13.116800 # 1 
352 1 1 0.000000 41.218102 21.856701 12.663400 # 1 
353 1 1 0.000000 41.680099 22.759701 13.724600 # 1 
354 1 1 0.000000 42.139400 24.023199 13.298300 # 1 
355 1 1 0.000000 42.253899 25.021900 14.259500 # 1 
356 1 1 0.000000 42.614101 26.347700 13.918800 # 1 
357 1 1 0.000000 42.893799 27.394300 14.824700 # 1 
358 1 1 0.000000 43.263901 28.695601 14.470900 # 1 
359 1 1 0.000000 18.072500 37.802502 0.063617 # 1 
360 1 1 0.000000 17.415600 36.624901 107.028999 # 1 
361 1 1 0.000000 17.092600 35.613300 0.649544 # 1 
362 1 1 0.000000 16.786699 34.327999 0.226053 # 1 
363 1 1 0.000000 16.411699 33.358700 1.163630 # 1 
364 1 1 0.000000 16.204300 32.025002 0.766432 # 1 
365 1 1 0.000000 16.040701 31.001400 1.760710 # 1 
366 1 1 0.000000 15.969100 29.611300 1.414600 # 1 
367 1 1 0.000000 15.985300 28.568800 2.384660 # 1 
368 1 1 0.000000 16.068100 27.232700 1.992180 # 1 
369 1 1 0.000000 16.199900 26.212299 2.996530 # 1 
370 1 1 0.000000 16.525000 24.929100 2.619300 # 1 
371 1 1 0.000000 16.717699 23.934299 3.544460 # 1 
372 1 1 0.000000 17.173800 22.625500 3.156470 # 1 
373 1 1 0.000000 17.518299 21.666599 4.123910 # 1 
374 1 1 0.000000 18.190901 20.466400 3.788400 # 1 
375 1 1 0.000000 18.764400 19.595900 4.737590 # 1 
376 1 1 0.000000 19.836901 18.708300 4.411460 # 1 
377 1 1 0.000000 20.597601 18.024000 5.403260 # 1 
378 1 1 0.000000 21.718100 17.247101 5.015090 # 1 
379 1 1 0.000000 22.611000 16.732300 5.999430 # 1 
380 1 1 0.000000 23.917601 16.203899 5.690560 # 1 
381 1 1 0.000000 24.896500 15.751800 6.625930 # 1 
382 1 1 0.000000 26.250900 15.372500 6.224550 # 1 
383 1 1 0.000000 27.224001 15.143400 7.208390 # 1 
384 1 1 0.000000 28.580299 15.158500 6.858950 # 1 
385 1 1 0.000000 29.629101 15.261200 7.797650 # 1 
386 1 1 0.000000 30.979300 15.432100 7.416490 # 1 
387 1 1 0.000000 31.970200 15.792100 8.399470 # 1 
388 1 1 0.000000 33.293999 16.117599 8.010860 # 1 
389 1 1 0.000000 34.221401 16.530199 8.986920 # 1 
390 1 1 0.000000 35.543400 16.910101 8.590400 # 1 
391 1 1 0.000000 36.562599 17.254900 9.498990 # 1 
392 1 1 0.000000 37.769299 17.900999 9.111730 # 1 
393 1 1 0.000000 38.554001 18.469000 10.140400 # 1 
394 1 1 0.000000 39.558201 19.344700 9.701930 # 1 
395 1 1 0.000000 40.224400 20.142500 10.670400 # 1 
396 1 1 0.000000 40.942200 21.316799 10.364500 # 1 
397 1 1 0.000000 41.360500 22.220400 11.332100 # 1 
398 1 1 0.000000 42.056000 23.383600 10.971900 # 1 
399 1 1 0.000000 42.178299 24.431200 11.938900 # 1 
400 1 1 0.000000 42.740200 25.653099 11.602100 # 1 
401 1 1 0.000000 42.965599 26.657200 12.579600 # 1 
402 1 1 0.000000 43.029202 28.017200 12.145100 # 1 
403 1 1 0.000000 43.196899 29.079800 13.113600 # 1 
404 1 1 0.000000 43.133900 30.424900 12.707300 # 1 
405 1 1 0.000000 15.871600 29.306801 0.036515 # 1 
406 1 1 0.000000 15.946100 27.906099 106.987999 # 1 
407 1 1 0.000000 16.054399 26.912399 0.600394 # 1 
408 1 1 0.000000 16.410299 25.574301 0.186050 # 1 
409 1 1 0.000000 16.662901 24.692200 1.233310 # 1 
410 1 1 0.000000 16.991400 23.360701 0.799255 # 1 
411 1 1 0.000000 17.389799 22.429501 1.774600 # 1 
412 1 1 0.000000 18.072901 21.191299 1.410270 # 1 
413 1 1 0.000000 18.504999 20.354200 2.414720 # 1 
414 1 1 0.000000 19.465599 19.355200 2.068290 # 1 
415 1 1 0.000000 20.097799 18.497101 3.028330 # 1 
416 1 1 0.000000 21.235800 17.652599 2.705850 # 1 
417 1 1 0.000000 22.076200 17.084600 3.702430 # 1 
418 1 1 0.000000 23.289700 16.494200 3.336700 # 1 
419 1 1 0.000000 24.259600 16.083401 4.321760 # 1 
420 1 1 0.000000 25.572800 15.719900 3.898120 # 1 
421 1 1 0.000000 26.577299 15.389400 4.861310 # 1 
422 1 1 0.000000 27.924000 15.176500 4.458770 # 1 
423 1 1 0.000000 28.943199 15.066600 5.502200 # 1 
424 1 1 0.000000 30.317499 15.181000 5.113760 # 1 
425 1 1 0.000000 31.345200 15.398300 6.054420 # 1 
426 1 1 0.000000 32.631901 15.768300 5.652120 # 1 
427 1 1 0.000000 33.653000 16.083099 6.629550 # 1 
428 1 1 0.000000 34.958302 16.484800 6.237020 # 1 
429 1 1 0.000000 35.913300 16.938101 7.210220 # 1 
430 1 1 0.000000 37.090801 17.547800 6.750470 # 1 
431 1 1 0.000000 38.001400 18.056200 7.718940 # 1 
432 1 1 0.000000 39.046501 18.956301 7.344460 # 1 
433 1 1 0.000000 39.752899 19.660299 8.317620 # 1 
434 1 1 0.000000 40.539600 20.807301 7.974890 # 1 
435 1 1 0.000000 41.203701 21.558701 9.000360 # 1 
436 1 1 0.000000 41.754200 22.816200 8.558180 # 1 
437 1 1 0.000000 42.106400 23.712200 9.583030 # 1 
438 1 1 0.000000 42.501499 25.035400 9.261210 # 1 
439 1 1 0.000000 42.753899 26.037901 10.232200 # 1 
440 1 1 0.000000 43.046799 27.351900 9.775550 # 1 
441 1 1 0.000000 43.131500 28.382099 10.784100 # 1 
442 1 1 0.000000 43.266499 29.741501 10.352000 # 1 
443 1 1 0.000000 18.325399 20.996401 0.020738 # 1 
444 1 1 0.000000 19.132700 19.843901 107.052002 # 1 
445 1 1 0.000000 19.807600 19.161100 0.731848 # 1 
446 1 1 0.000000 20.808500 18.202299 0.330589 # 1 
447 1 1 0.000000 21.545300 17.570999 1.339040 # 1 
448 1 1 0.000000 22.679001 16.775900 0.926738 # 1 
449 1 1 0.000000 23.603100 16.360300 1.960560 # 1 
450 1 1 0.000000 24.921000 15.974900 1.546850 # 1 
451 1 1 0.000000 25.871599 15.757400 2.588660 # 1 
452 1 1 0.000000 27.190701 15.447800 2.150800 # 1 
453 1 1 0.000000 28.222401 15.193000 3.111650 # 1 
454 1 1 0.000000 29.605101 15.344200 2.737280 # 1 
455 1 1 0.000000 30.612301 15.458800 3.735570 # 1 
456 1 1 0.000000 31.998699 15.563800 3.344330 # 1 
457 1 1 0.000000 32.975498 15.906200 4.299960 # 1 
458 1 1 0.000000 34.264301 16.340799 3.891670 # 1 
459 1 1 0.000000 35.219601 16.700399 4.868540 # 1 
460 1 1 0.000000 36.399601 17.326500 4.433840 # 1 
461 1 1 0.000000 37.340801 17.810400 5.378920 # 1 
462 1 1 0.000000 38.437401 18.603901 4.994070 # 1 
463 1 1 0.000000 39.199501 19.251301 5.974680 # 1 
464 1 1 0.000000 40.278301 20.024700 5.549480 # 1 
465 1 1 0.000000 40.743500 20.957001 6.552250 # 1 
466 1 1 0.000000 41.440701 22.112700 6.197750 # 1 
467 1 1 0.000000 41.806999 23.106800 7.192470 # 1 
468 1 1 0.000000 42.257301 24.387300 6.850210 # 1 
469 1 1 0.000000 42.532501 25.375299 7.820370 # 1 
470 1 1 0.000000 42.876202 26.691799 7.380600 # 1 
471 1 1 0.000000 43.045101 27.675800 8.384320 # 1 
472 1 1 0.000000 43.076099 29.046600 8.033890 # 1 
473 1 1 0.000000 25.245399 15.886400 0.171220 # 1 
474 1 1 0.000000 26.532801 15.529000 107.125000 # 1 
475 1 1 0.000000 27.532200 15.449900 0.768472 # 1 
476 1 1 0.000000 28.878799 15.326800 0.372019 # 1 
477 1 1 0.000000 29.924700 15.323300 1.376920 # 1 
478 1 1 0.000000 31.290100 15.404600 0.968816 # 1 
479 1 1 0.000000 32.277599 15.681800 2.003140 # 1 
480 1 1 0.000000 33.593300 15.976100 1.594130 # 1 
481 1 1 0.000000 34.569599 16.368900 2.479820 # 1 
482 1 1 0.000000 35.671501 17.101500 2.039620 # 1 
483 1 1 0.000000 36.571201 17.600800 3.061260 # 1 
484 1 1 0.000000 37.751900 18.372601 2.658560 # 1 
485 1 1 0.000000 38.718800 18.840799 3.622260 # 1 
486 1 1 0.000000 39.734699 19.763800 3.230500 # 1 
487 1 1 0.000000 40.522202 20.317499 4.226200 # 1 
488 1 1 0.000000 41.329102 21.467400 3.850520 # 1 
489 1 1 0.000000 41.606800 22.415400 4.819170 # 1 
490 1 1 0.000000 41.990200 23.731199 4.445720 # 1 
491 1 1 0.000000 41.866001 24.827900 5.442030 # 1 
492 1 1 0.000000 42.661098 26.045500 4.985520 # 1 
493 1 1 0.000000 42.960499 27.007700 5.990730 # 1 
494 1 1 0.000000 43.143799 28.354900 5.630400 # 1 
495 1 1 0.000000 43.093601 29.356800 6.635720 # 1 
496 1 1 0.000000 42.987999 30.763201 6.231080 # 1 
497 1 1 0.000000 33.898998 16.010201 0.197932 # 1 
498 1 1 0.000000 35.067001 16.581400 107.101997 # 1 
499 1 1 0.000000 35.949200 17.209499 0.667369 # 1 
500 1 1 0.000000 37.038399 17.995800 0.326798 # 1 
501 1 1 0.000000 37.874802 18.630400 1.300200 # 1 
502 1 1 0.000000 39.035599 19.362400 0.898013 # 1 
503 1 1 0.000000 39.810699 20.080900 1.844030 # 1 
504 1 1 0.000000 40.848900 21.031900 1.500810 # 1 
505 1 1 0.000000 41.457298 21.861601 2.503820 # 1 
506 1 1 0.000000 42.028000 23.076900 2.094180 # 1 
507 1 1 0.000000 42.198502 24.031200 3.088920 # 1 
508 1 1 0.000000 42.535000 25.382900 2.705390 # 1 
509 1 1 0.000000 42.766201 26.429701 3.666430 # 1 
510 1 1 0.000000 42.974602 27.750799 3.251920 # 1 
511 1 1 0.000000 43.157398 28.693300 4.250140 # 1 
512 1 1 0.000000 43.188900 30.049500 3.832270 # 1 
513 1 1 0.000000 40.882801 21.391100 0.162094 # 1 
514 1 1 0.000000 41.699100 22.471800 107.094002 # 1 
515 1 1 0.000000 42.197399 23.398701 0.735742 # 1 
516 1 1 0.000000 42.441601 24.706499 0.311534 # 1 
517 1 1 0.000000 42.624699 25.705400 1.334860 # 1 
518 1 1 0.000000 42.915199 26.963499 0.934840 # 1 
519 1 1 0.000000 43.046501 28.038300 1.857970 # 1 
520 1 1 0.000000 43.024700 29.349100 1.420820 # 1 
521 1 1 0.000000 43.107800 31.535700 28.844101 # 1 
522 1 1 0.000000 43.058102 32.908501 28.420900 # 1 
523 1 1 0.000000 42.886799 33.886101 29.433201 # 1 
524 1 1 0.000000 42.394199 35.184601 29.084000 # 1 
525 1 1 0.000000 42.051800 36.172100 30.088900 # 1 
526 1 1 0.000000 41.243401 37.304798 29.699600 # 1 
527 1 1 0.000000 43.175701 30.808201 26.502501 # 1 
528 1 1 0.000000 43.136902 32.198299 26.093300 # 1 
529 1 1 0.000000 43.024502 33.224998 27.070801 # 1 
530 1 1 0.000000 42.462601 34.487900 26.695801 # 1 
531 1 1 0.000000 42.185902 35.408100 27.736601 # 1 
532 1 1 0.000000 41.610500 36.673100 27.352501 # 1 
533 1 1 0.000000 41.031399 37.567200 28.316799 # 1 
534 1 1 0.000000 40.198200 38.665699 27.937300 # 1 
535 1 1 0.000000 39.543999 39.413300 28.928801 # 1 
536 1 1 0.000000 38.574902 40.402599 28.575399 # 1 
537 1 1 0.000000 37.823299 41.110298 29.576099 # 1 
538 1 1 0.000000 36.658501 41.859299 29.226999 # 1 
539 1 1 0.000000 35.767200 42.305302 30.172501 # 1 
540 1 1 0.000000 34.534000 42.857201 29.776899 # 1 
541 1 1 0.000000 43.178200 30.108400 24.156900 # 1 
542 1 1 0.000000 43.125599 31.500601 23.788200 # 1 
543 1 1 0.000000 43.100899 32.545200 24.726200 # 1 
544 1 1 0.000000 42.723499 33.913799 24.419100 # 1 
545 1 1 0.000000 42.386398 34.875999 25.357500 # 1 
546 1 1 0.000000 41.917900 36.179699 24.947201 # 1 
547 1 1 0.000000 41.428699 37.016499 25.943501 # 1 
548 1 1 0.000000 40.690701 38.199699 25.590700 # 1 
549 1 1 0.000000 40.020302 38.957600 26.566999 # 1 
550 1 1 0.000000 38.976799 39.900398 26.155800 # 1 
551 1 1 0.000000 38.297199 40.720600 27.239799 # 1 
552 1 1 0.000000 37.308201 41.635601 26.879200 # 1 
553 1 1 0.000000 36.389702 42.036701 27.875500 # 1 
554 1 1 0.000000 35.189701 42.630001 27.429001 # 1 
555 1 1 0.000000 34.190701 42.946499 28.422100 # 1 
556 1 1 0.000000 32.946602 43.469299 27.997101 # 1 
557 1 1 0.000000 31.976500 43.693199 29.016500 # 1 
558 1 1 0.000000 30.610100 43.741199 28.550301 # 1 
559 1 1 0.000000 29.552200 43.815300 29.489799 # 1 
560 1 1 0.000000 28.180201 43.778999 29.167801 # 1 
561 1 1 0.000000 27.238001 43.668098 30.207399 # 1 
562 1 1 0.000000 25.892700 43.406101 29.785900 # 1 
563 1 1 0.000000 42.976799 31.858299 22.431400 # 1 
564 1 1 0.000000 42.759602 33.221500 22.073099 # 1 
565 1 1 0.000000 42.465801 34.207001 23.082001 # 1 
566 1 1 0.000000 42.112900 35.513500 22.666401 # 1 
567 1 1 0.000000 41.879601 36.508202 23.598200 # 1 